<?xml version="1.0" encoding="UTF-8"?>

<!-- generated on 2025-04-11 20:11:25 by Eclipse SUMO sumo Version 1.22.0
<sumoConfiguration xmlns:xsi="http://www.w3.org/2001/XMLSchema-instance" xsi:noNamespaceSchemaLocation="http://sumo.dlr.de/xsd/sumoConfiguration.xsd">

    <input>
        <net-file value="./data/map.net.xml"/>
        <route-files value="./data/routes.rou.xml"/>
    </input>

    <output>
        <fcd-output value="./data/output/fcd.xml"/>
        <summary-output value="./data/output/summary.xml"/>
        <tripinfo-output value="./data/output/tripinfo.xml"/>
    </output>

    <time>
        <begin value="0"/>
        <end value="7200"/>
    </time>

    <traci_server>
        <remote-port value="57296"/>
    </traci_server>

</sumoConfiguration>
-->

<fcd-export xmlns:xsi="http://www.w3.org/2001/XMLSchema-instance" xsi:noNamespaceSchemaLocation="http://sumo.dlr.de/xsd/fcd_file.xsd">
    <timestep time="0.00">
        <vehicle id="0" x="468.78" y="3393.54" angle="332.26" type="DEFAULT_VEHTYPE" speed="0.00" pos="5.10" lane="13681344#5_0" slope="0.00"/>
    </timestep>
    <timestep time="1.00">
        <vehicle id="0" x="468.11" y="3394.82" angle="332.26" type="DEFAULT_VEHTYPE" speed="1.44" pos="6.54" lane="13681344#5_0" slope="0.00"/>
        <vehicle id="1" x="4630.08" y="6919.15" angle="184.34" type="DEFAULT_VEHTYPE" speed="0.00" pos="5.10" lane="-13682492#2_0" slope="0.00"/>
    </timestep>
    <timestep time="2.00">
        <vehicle id="0" x="466.66" y="3397.57" angle="332.26" type="DEFAULT_VEHTYPE" speed="3.12" pos="9.66" lane="13681344#5_0" slope="0.00"/>
        <vehicle id="1" x="4630.08" y="6919.08" angle="184.34" type="DEFAULT_VEHTYPE" speed="0.07" pos="5.17" lane="-13682492#2_0" slope="0.00"/>
        <vehicle id="2" x="5407.66" y="2138.50" angle="272.40" type="DEFAULT_VEHTYPE" speed="0.00" pos="5.10" lane="13682432#2_0" slope="0.00"/>
    </timestep>
    <timestep time="3.00">
        <vehicle id="0" x="464.15" y="3402.34" angle="332.26" type="DEFAULT_VEHTYPE" speed="5.38" pos="15.04" lane="13681344#5_0" slope="0.00"/>
        <vehicle id="1" x="4630.08" y="6919.06" angle="184.34" type="DEFAULT_VEHTYPE" speed="0.02" pos="5.19" lane="-13682492#2_0" slope="0.00"/>
        <vehicle id="2" x="5405.64" y="2138.59" angle="272.40" type="DEFAULT_VEHTYPE" speed="2.03" pos="7.13" lane="13682432#2_0" slope="0.00"/>
        <vehicle id="3" x="4616.77" y="6708.92" angle="270.63" type="DEFAULT_VEHTYPE" speed="0.00" pos="5.10" lane="353261802_0" slope="0.00"/>
    </timestep>
    <timestep time="4.00">
        <vehicle id="0" x="463.06" y="3408.42" angle="354.50" type="DEFAULT_VEHTYPE" speed="6.44" pos="5.34" lane=":126052632_3_0" slope="0.00"/>
        <vehicle id="1" x="4630.08" y="6919.05" angle="184.34" type="DEFAULT_VEHTYPE" speed="0.01" pos="5.20" lane="-13682492#2_0" slope="0.00"/>
        <vehicle id="2" x="5401.66" y="2138.76" angle="272.40" type="DEFAULT_VEHTYPE" speed="3.98" pos="11.11" lane="13682432#2_0" slope="0.00"/>
        <vehicle id="3" x="4614.45" y="6708.94" angle="270.63" type="DEFAULT_VEHTYPE" speed="2.32" pos="7.42" lane="353261802_0" slope="0.00"/>
        <vehicle id="4" x="7557.12" y="3145.88" angle="89.27" type="DEFAULT_VEHTYPE" speed="0.00" pos="5.10" lane="-589357403#4_0" slope="0.00"/>
    </timestep>
    <timestep time="5.00">
        <vehicle id="0" x="467.74" y="3412.45" angle="54.75" type="DEFAULT_VEHTYPE" speed="6.31" pos="2.33" lane="613382845#1_0" slope="0.00"/>
        <vehicle id="1" x="4630.08" y="6919.05" angle="184.34" type="DEFAULT_VEHTYPE" speed="0.00" pos="5.20" lane="-13682492#2_0" slope="0.00"/>
        <vehicle id="2" x="5395.12" y="2139.03" angle="272.40" type="DEFAULT_VEHTYPE" speed="6.54" pos="17.66" lane="13682432#2_0" slope="0.00"/>
        <vehicle id="3" x="4609.66" y="6708.99" angle="270.63" type="DEFAULT_VEHTYPE" speed="4.78" pos="12.21" lane="353261802_0" slope="0.00"/>
        <vehicle id="4" x="7559.72" y="3145.91" angle="89.27" type="DEFAULT_VEHTYPE" speed="2.60" pos="7.70" lane="-589357403#4_0" slope="0.00"/>
        <vehicle id="5" x="3336.16" y="5043.94" angle="170.77" type="DEFAULT_VEHTYPE" speed="0.00" pos="5.10" lane="-13681964#11_0" slope="0.00"/>
    </timestep>
    <timestep time="6.00">
        <vehicle id="0" x="474.71" y="3416.43" angle="60.30" type="DEFAULT_VEHTYPE" speed="8.03" pos="10.36" lane="613382845#1_0" slope="0.00"/>
        <vehicle id="1" x="4630.08" y="6919.05" angle="184.34" type="DEFAULT_VEHTYPE" speed="0.00" pos="5.20" lane="-13682492#2_0" slope="0.00"/>
        <vehicle id="2" x="5386.86" y="2139.38" angle="272.40" type="DEFAULT_VEHTYPE" speed="8.27" pos="25.93" lane="13682432#2_0" slope="0.00"/>
        <vehicle id="3" x="4603.15" y="6709.07" angle="270.63" type="DEFAULT_VEHTYPE" speed="6.51" pos="18.72" lane="353261802_0" slope="0.00"/>
        <vehicle id="4" x="7564.51" y="3145.97" angle="89.27" type="DEFAULT_VEHTYPE" speed="4.79" pos="12.49" lane="-589357403#4_0" slope="0.00"/>
        <vehicle id="5" x="3336.43" y="5042.28" angle="170.77" type="DEFAULT_VEHTYPE" speed="1.68" pos="6.78" lane="-13681964#11_0" slope="0.00"/>
        <vehicle id="6" x="6587.00" y="5120.58" angle="122.03" type="DEFAULT_VEHTYPE" speed="0.00" pos="5.10" lane="-1291555117#3_0" slope="0.00"/>
    </timestep>
    <timestep time="7.00">
        <vehicle id="0" x="483.59" y="3421.49" angle="60.30" type="DEFAULT_VEHTYPE" speed="10.22" pos="20.58" lane="613382845#1_0" slope="0.00"/>
        <vehicle id="1" x="4630.08" y="6919.05" angle="184.34" type="DEFAULT_VEHTYPE" speed="0.00" pos="5.20" lane="-13682492#2_0" slope="0.00"/>
        <vehicle id="2" x="5377.17" y="2139.78" angle="272.40" type="DEFAULT_VEHTYPE" speed="9.69" pos="35.62" lane="13682432#2_0" slope="0.00"/>
        <vehicle id="3" x="4594.85" y="6709.16" angle="270.63" type="DEFAULT_VEHTYPE" speed="8.30" pos="27.02" lane="353261802_0" slope="0.00"/>
        <vehicle id="4" x="7571.04" y="3146.05" angle="89.27" type="DEFAULT_VEHTYPE" speed="6.54" pos="19.02" lane="-589357403#4_0" slope="0.00"/>
        <vehicle id="5" x="3336.97" y="5038.93" angle="170.77" type="DEFAULT_VEHTYPE" speed="3.40" pos="10.18" lane="-13681964#11_0" slope="0.00"/>
        <vehicle id="6" x="6588.85" y="5119.42" angle="122.03" type="DEFAULT_VEHTYPE" speed="2.18" pos="7.28" lane="-1291555117#3_0" slope="0.00"/>
        <vehicle id="7" x="3706.47" y="6527.40" angle="286.97" type="DEFAULT_VEHTYPE" speed="0.00" pos="5.10" lane="13681433#4_0" slope="0.00"/>
    </timestep>
    <timestep time="8.00">
        <vehicle id="0" x="493.73" y="3427.27" angle="60.30" type="DEFAULT_VEHTYPE" speed="11.67" pos="32.26" lane="613382845#1_0" slope="0.00"/>
        <vehicle id="1" x="4630.08" y="6919.05" angle="184.34" type="DEFAULT_VEHTYPE" speed="0.00" pos="5.20" lane="-13682492#2_0" slope="0.00"/>
        <vehicle id="2" x="5365.81" y="2140.26" angle="272.40" type="DEFAULT_VEHTYPE" speed="11.37" pos="46.99" lane="13682432#2_0" slope="0.00"/>
        <vehicle id="3" x="4584.86" y="6709.27" angle="270.63" type="DEFAULT_VEHTYPE" speed="9.99" pos="37.01" lane="353261802_0" slope="0.00"/>
        <vehicle id="4" x="7578.95" y="3146.15" angle="89.27" type="DEFAULT_VEHTYPE" speed="7.91" pos="26.93" lane="-589357403#4_0" slope="0.00"/>
        <vehicle id="5" x="3337.87" y="5033.39" angle="170.77" type="DEFAULT_VEHTYPE" speed="5.61" pos="15.78" lane="-13681964#11_0" slope="0.00"/>
        <vehicle id="6" x="6592.77" y="5116.97" angle="122.03" type="DEFAULT_VEHTYPE" speed="4.62" pos="11.90" lane="-1291555117#3_0" slope="0.00"/>
        <vehicle id="7" x="3705.10" y="6527.82" angle="286.97" type="DEFAULT_VEHTYPE" speed="1.43" pos="6.53" lane="13681433#4_0" slope="0.00"/>
        <vehicle id="8" x="212.52" y="2467.51" angle="179.98" type="DEFAULT_VEHTYPE" speed="0.00" pos="5.10" lane="-13681973_0" slope="0.00"/>
    </timestep>
    <timestep time="9.00">
        <vehicle id="0" x="505.10" y="3433.76" angle="60.30" type="DEFAULT_VEHTYPE" speed="13.09" pos="45.35" lane="613382845#1_0" slope="0.00"/>
        <vehicle id="1" x="4630.08" y="6919.05" angle="184.34" type="DEFAULT_VEHTYPE" speed="0.00" pos="5.20" lane="-13682492#2_0" slope="0.00"/>
        <vehicle id="2" x="5352.78" y="2140.81" angle="272.40" type="DEFAULT_VEHTYPE" speed="13.03" pos="60.03" lane="13682432#2_0" slope="0.00"/>
        <vehicle id="3" x="4577.13" y="6709.35" angle="270.63" type="DEFAULT_VEHTYPE" speed="7.73" pos="44.74" lane="353261802_0" slope="0.00"/>
        <vehicle id="4" x="7588.45" y="3146.28" angle="89.27" type="DEFAULT_VEHTYPE" speed="9.49" pos="36.43" lane="-589357403#4_0" slope="0.00"/>
        <vehicle id="5" x="3339.17" y="5025.40" angle="170.75" type="DEFAULT_VEHTYPE" speed="8.11" pos="6.42" lane=":126048396_5_0" slope="0.00"/>
        <vehicle id="6" x="6598.53" y="5113.36" angle="122.03" type="DEFAULT_VEHTYPE" speed="6.80" pos="18.70" lane="-1291555117#3_0" slope="0.00"/>
        <vehicle id="7" x="3701.24" y="6529.00" angle="286.97" type="DEFAULT_VEHTYPE" speed="4.03" pos="10.57" lane="13681433#4_0" slope="0.00"/>
        <vehicle id="8" x="212.52" y="2466.17" angle="179.98" type="DEFAULT_VEHTYPE" speed="1.34" pos="6.44" lane="-13681973_0" slope="0.00"/>
        <vehicle id="9" x="7473.64" y="6276.34" angle="91.73" type="DEFAULT_VEHTYPE" speed="0.00" pos="5.10" lane="192952205#5_0" slope="0.00"/>
    </timestep>
    <timestep time="10.00">
        <vehicle id="0" x="518.70" y="3441.52" angle="60.30" type="DEFAULT_VEHTYPE" speed="15.66" pos="61.01" lane="613382845#1_0" slope="0.00"/>
        <vehicle id="1" x="4630.08" y="6919.05" angle="184.34" type="DEFAULT_VEHTYPE" speed="0.00" pos="5.20" lane="-13682492#2_0" slope="0.00"/>
        <vehicle id="10" x="6764.17" y="3117.70" angle="182.00" type="DEFAULT_VEHTYPE" speed="0.00" pos="5.10" lane="191800399#0_0" slope="0.00"/>
        <vehicle id="2" x="5341.71" y="2141.27" angle="272.40" type="DEFAULT_VEHTYPE" speed="11.09" pos="71.11" lane="13682432#2_0" slope="0.00"/>
        <vehicle id="3" x="4573.40" y="6708.61" angle="261.36" type="DEFAULT_VEHTYPE" speed="3.95" pos="1.39" lane=":126054637_2_0" slope="0.00"/>
        <vehicle id="4" x="7599.66" y="3146.42" angle="89.27" type="DEFAULT_VEHTYPE" speed="11.22" pos="47.64" lane="-589357403#4_0" slope="0.00"/>
        <vehicle id="5" x="3340.73" y="5015.82" angle="170.73" type="DEFAULT_VEHTYPE" speed="9.70" pos="6.23" lane="-13681964#10_0" slope="0.00"/>
        <vehicle id="6" x="6605.48" y="5109.02" angle="122.03" type="DEFAULT_VEHTYPE" speed="8.19" pos="26.89" lane="-1291555117#3_0" slope="0.00"/>
        <vehicle id="7" x="3695.31" y="6530.81" angle="286.97" type="DEFAULT_VEHTYPE" speed="6.21" pos="16.77" lane="13681433#4_0" slope="0.00"/>
        <vehicle id="8" x="212.52" y="2462.77" angle="179.98" type="DEFAULT_VEHTYPE" speed="3.40" pos="9.84" lane="-13681973_0" slope="0.00"/>
        <vehicle id="9" x="7475.78" y="6276.27" angle="91.73" type="DEFAULT_VEHTYPE" speed="2.14" pos="7.24" lane="192952205#5_0" slope="0.00"/>
    </timestep>
    <timestep time="11.00">
        <vehicle id="0" x="534.50" y="3450.53" angle="60.30" type="DEFAULT_VEHTYPE" speed="18.18" pos="79.19" lane="613382845#1_0" slope="0.00"/>
        <vehicle id="1" x="4630.08" y="6919.05" angle="184.34" type="DEFAULT_VEHTYPE" speed="0.00" pos="5.20" lane="-13682492#2_0" slope="0.00"/>
        <vehicle id="10" x="6764.09" y="3115.29" angle="182.00" type="DEFAULT_VEHTYPE" speed="2.41" pos="7.51" lane="191800399#0_0" slope="0.00"/>
        <vehicle id="11" x="7767.77" y="5143.00" angle="197.62" type="DEFAULT_VEHTYPE" speed="0.00" pos="5.10" lane="-202055016#5_0" slope="0.00"/>
        <vehicle id="2" x="5334.38" y="2141.58" angle="272.40" type="DEFAULT_VEHTYPE" speed="7.34" pos="78.45" lane="13682432#2_0" slope="0.00"/>
        <vehicle id="3" x="4574.09" y="6706.49" angle="205.22" type="DEFAULT_VEHTYPE" speed="2.73" pos="2.68" lane=":126054637_12_0" slope="0.00"/>
        <vehicle id="4" x="7612.89" y="3146.59" angle="89.27" type="DEFAULT_VEHTYPE" speed="13.23" pos="60.87" lane="-589357403#4_0" slope="0.00"/>
        <vehicle id="5" x="3342.58" y="5004.49" angle="170.73" type="DEFAULT_VEHTYPE" speed="11.49" pos="17.72" lane="-13681964#10_0" slope="0.00"/>
        <vehicle id="6" x="6613.61" y="5103.94" angle="122.03" type="DEFAULT_VEHTYPE" speed="9.59" pos="36.48" lane="-1291555117#3_0" slope="0.00"/>
        <vehicle id="7" x="3687.05" y="6533.33" angle="286.97" type="DEFAULT_VEHTYPE" speed="8.63" pos="25.41" lane="13681433#4_0" slope="0.00"/>
        <vehicle id="8" x="212.52" y="2457.51" angle="179.98" type="DEFAULT_VEHTYPE" speed="5.26" pos="15.10" lane="-13681973_0" slope="0.00"/>
        <vehicle id="9" x="7479.31" y="6276.17" angle="91.73" type="DEFAULT_VEHTYPE" speed="3.55" pos="10.79" lane="192952205#5_0" slope="0.00"/>
    </timestep>
    <timestep time="12.00">
        <vehicle id="0" x="551.54" y="3460.25" angle="60.30" type="DEFAULT_VEHTYPE" speed="19.62" pos="98.81" lane="613382845#1_0" slope="0.00"/>
        <vehicle id="1" x="4630.08" y="6919.05" angle="184.34" type="DEFAULT_VEHTYPE" speed="0.00" pos="5.20" lane="-13682492#2_0" slope="0.00"/>
        <vehicle id="10" x="6763.95" y="3111.42" angle="182.00" type="DEFAULT_VEHTYPE" speed="3.87" pos="11.39" lane="191800399#0_0" slope="0.00"/>
        <vehicle id="11" x="7766.99" y="5140.57" angle="197.62" type="DEFAULT_VEHTYPE" speed="2.55" pos="7.65" lane="-202055016#5_0" slope="0.00"/>
        <vehicle id="12" x="3599.11" y="5471.96" angle="50.35" type="DEFAULT_VEHTYPE" speed="0.00" pos="5.10" lane="895007899#42_0" slope="0.00"/>
        <vehicle id="2" x="5331.17" y="2141.71" angle="272.40" type="DEFAULT_VEHTYPE" speed="3.21" pos="81.66" lane="13682432#2_0" slope="0.00"/>
        <vehicle id="3" x="4577.13" y="6706.15" angle="112.35" type="DEFAULT_VEHTYPE" speed="3.14" pos="2.59" lane="-353261802_0" slope="0.00"/>
        <vehicle id="4" x="7626.19" y="3146.72" angle="89.75" type="DEFAULT_VEHTYPE" speed="13.30" pos="4.52" lane=":2956518064_7_0" slope="0.00"/>
        <vehicle id="5" x="3344.29" y="4994.05" angle="170.73" type="DEFAULT_VEHTYPE" speed="10.58" pos="28.29" lane="-13681964#10_0" slope="0.00"/>
        <vehicle id="6" x="6623.47" y="5097.77" angle="122.03" type="DEFAULT_VEHTYPE" speed="11.63" pos="48.11" lane="-1291555117#3_0" slope="0.00"/>
        <vehicle id="7" x="3676.85" y="6536.44" angle="286.97" type="DEFAULT_VEHTYPE" speed="10.67" pos="36.07" lane="13681433#4_0" slope="0.00"/>
        <vehicle id="8" x="212.53" y="2449.72" angle="179.98" type="DEFAULT_VEHTYPE" speed="7.79" pos="22.89" lane="-13681973_0" slope="0.00"/>
        <vehicle id="9" x="7484.38" y="6276.01" angle="91.73" type="DEFAULT_VEHTYPE" speed="5.09" pos="15.88" lane="192952205#5_0" slope="0.00"/>
    </timestep>
    <timestep time="13.00">
        <vehicle id="0" x="570.02" y="3470.80" angle="60.30" type="DEFAULT_VEHTYPE" speed="21.28" pos="120.09" lane="613382845#1_0" slope="0.00"/>
        <vehicle id="1" x="4630.08" y="6919.05" angle="184.34" type="DEFAULT_VEHTYPE" speed="0.00" pos="5.20" lane="-13682492#2_0" slope="0.00"/>
        <vehicle id="10" x="6763.73" y="3105.12" angle="182.00" type="DEFAULT_VEHTYPE" speed="6.30" pos="17.69" lane="191800399#0_0" slope="0.00"/>
        <vehicle id="11" x="7765.55" y="5136.03" angle="197.62" type="DEFAULT_VEHTYPE" speed="4.76" pos="12.41" lane="-202055016#5_0" slope="0.00"/>
        <vehicle id="12" x="3600.63" y="5473.22" angle="50.35" type="DEFAULT_VEHTYPE" speed="1.98" pos="7.08" lane="895007899#42_0" slope="0.00"/>
        <vehicle id="13" x="5245.28" y="6281.88" angle="0.64" type="DEFAULT_VEHTYPE" speed="0.00" pos="5.10" lane="-13680556_0" slope="0.00"/>
        <vehicle id="2" x="5329.23" y="2140.46" angle="255.59" type="DEFAULT_VEHTYPE" speed="2.46" pos="0.60" lane=":126062724_10_0" slope="0.00"/>
        <vehicle id="3" x="4582.29" y="6706.09" angle="90.63" type="DEFAULT_VEHTYPE" speed="5.16" pos="7.75" lane="-353261802_0" slope="0.00"/>
        <vehicle id="4" x="7639.42" y="3146.74" angle="90.09" type="DEFAULT_VEHTYPE" speed="13.23" pos="3.17" lane="-589357403#3_0" slope="0.00"/>
        <vehicle id="5" x="3346.10" y="4982.98" angle="170.73" type="DEFAULT_VEHTYPE" speed="11.22" pos="39.51" lane="-13681964#10_0" slope="0.00"/>
        <vehicle id="6" x="6635.04" y="5090.58" angle="121.50" type="DEFAULT_VEHTYPE" speed="13.62" pos="61.73" lane="-1291555117#3_0" slope="0.00"/>
        <vehicle id="7" x="3665.64" y="6541.03" angle="293.72" type="DEFAULT_VEHTYPE" speed="12.13" pos="48.20" lane="13681433#4_0" slope="0.00"/>
        <vehicle id="8" x="212.53" y="2440.16" angle="179.98" type="DEFAULT_VEHTYPE" speed="9.55" pos="32.45" lane="-13681973_0" slope="0.00"/>
        <vehicle id="9" x="7491.07" y="6275.81" angle="91.73" type="DEFAULT_VEHTYPE" speed="6.71" pos="22.59" lane="192952205#5_0" slope="0.00"/>
    </timestep>
    <timestep time="14.00">
        <vehicle id="0" x="589.27" y="3484.23" angle="54.79" type="DEFAULT_VEHTYPE" speed="23.47" pos="143.56" lane="613382845#1_0" slope="0.00"/>
        <vehicle id="1" x="4630.08" y="6919.05" angle="184.34" type="DEFAULT_VEHTYPE" speed="0.00" pos="5.20" lane="-13682492#2_0" slope="0.00"/>
        <vehicle id="10" x="6763.44" y="3096.70" angle="182.00" type="DEFAULT_VEHTYPE" speed="8.43" pos="26.11" lane="191800399#0_0" slope="0.00"/>
        <vehicle id="11" x="7763.38" y="5129.19" angle="197.62" type="DEFAULT_VEHTYPE" speed="7.17" pos="19.58" lane="-202055016#5_0" slope="0.00"/>
        <vehicle id="12" x="3603.44" y="5475.55" angle="50.35" type="DEFAULT_VEHTYPE" speed="3.67" pos="10.75" lane="895007899#42_0" slope="0.00"/>
        <vehicle id="13" x="5245.30" y="6284.13" angle="0.64" type="DEFAULT_VEHTYPE" speed="2.25" pos="7.35" lane="-13680556_0" slope="0.00"/>
        <vehicle id="14" x="5201.17" y="3949.48" angle="182.10" type="DEFAULT_VEHTYPE" speed="0.00" pos="5.10" lane="292071086#4_0" slope="0.00"/>
        <vehicle id="2" x="5330.43" y="2138.67" angle="196.37" type="DEFAULT_VEHTYPE" speed="2.39" pos="2.99" lane=":126062724_10_0" slope="0.00"/>
        <vehicle id="3" x="4589.27" y="6706.02" angle="90.63" type="DEFAULT_VEHTYPE" speed="6.98" pos="14.73" lane="-353261802_0" slope="0.00"/>
        <vehicle id="4" x="7652.76" y="3146.68" angle="90.26" type="DEFAULT_VEHTYPE" speed="13.34" pos="16.51" lane="-589357403#3_0" slope="0.00"/>
        <vehicle id="5" x="3347.84" y="4972.28" angle="170.73" type="DEFAULT_VEHTYPE" speed="10.83" pos="50.35" lane="-13681964#10_0" slope="0.00"/>
        <vehicle id="6" x="6646.59" y="5083.55" angle="121.32" type="DEFAULT_VEHTYPE" speed="13.52" pos="75.25" lane="-1291555117#3_0" slope="0.00"/>
        <vehicle id="7" x="3655.40" y="6545.53" angle="293.72" type="DEFAULT_VEHTYPE" speed="11.18" pos="59.38" lane="13681433#4_0" slope="0.00"/>
        <vehicle id="8" x="212.53" y="2428.84" angle="179.98" type="DEFAULT_VEHTYPE" speed="11.32" pos="43.77" lane="-13681973_0" slope="0.00"/>
        <vehicle id="9" x="7499.69" y="6275.55" angle="91.73" type="DEFAULT_VEHTYPE" speed="8.66" pos="31.25" lane="192952205#5_0" slope="0.00"/>
    </timestep>
    <timestep time="15.00">
        <vehicle id="0" x="609.87" y="3498.77" angle="54.79" type="DEFAULT_VEHTYPE" speed="25.22" pos="168.78" lane="613382845#1_0" slope="0.00"/>
        <vehicle id="1" x="4630.08" y="6919.05" angle="184.34" type="DEFAULT_VEHTYPE" speed="0.00" pos="5.20" lane="-13682492#2_0" slope="0.00"/>
        <vehicle id="10" x="6763.08" y="3086.49" angle="182.00" type="DEFAULT_VEHTYPE" speed="10.22" pos="36.33" lane="191800399#0_0" slope="0.00"/>
        <vehicle id="11" x="7761.04" y="5120.79" angle="194.86" type="DEFAULT_VEHTYPE" speed="8.73" pos="28.31" lane="-202055016#5_0" slope="0.00"/>
        <vehicle id="12" x="3607.28" y="5478.73" angle="50.35" type="DEFAULT_VEHTYPE" speed="5.00" pos="15.74" lane="895007899#42_0" slope="0.00"/>
        <vehicle id="13" x="5245.35" y="6288.24" angle="0.64" type="DEFAULT_VEHTYPE" speed="4.11" pos="11.46" lane="-13680556_0" slope="0.00"/>
        <vehicle id="14" x="5201.09" y="3947.15" angle="182.10" type="DEFAULT_VEHTYPE" speed="2.34" pos="7.44" lane="292071086#4_0" slope="0.00"/>
        <vehicle id="15" x="6739.22" y="2005.64" angle="180.64" type="DEFAULT_VEHTYPE" speed="0.00" pos="5.10" lane="191800400#5_0" slope="0.00"/>
        <vehicle id="2" x="5333.12" y="2138.42" angle="115.73" type="DEFAULT_VEHTYPE" speed="2.75" pos="2.51" lane="-13682432#2_0" slope="0.00"/>
        <vehicle id="3" x="4597.78" y="6705.92" angle="90.63" type="DEFAULT_VEHTYPE" speed="8.51" pos="23.24" lane="-353261802_0" slope="0.00"/>
        <vehicle id="4" x="7666.20" y="3146.61" angle="90.26" type="DEFAULT_VEHTYPE" speed="13.44" pos="29.95" lane="-589357403#3_0" slope="0.00"/>
        <vehicle id="5" x="3349.70" y="4960.90" angle="170.73" type="DEFAULT_VEHTYPE" speed="11.53" pos="61.88" lane="-13681964#10_0" slope="0.00"/>
        <vehicle id="6" x="6658.39" y="5076.37" angle="121.32" type="DEFAULT_VEHTYPE" speed="13.81" pos="89.07" lane="-1291555117#3_0" slope="0.00"/>
        <vehicle id="7" x="3645.27" y="6549.98" angle="293.72" type="DEFAULT_VEHTYPE" speed="11.06" pos="70.45" lane="13681433#4_0" slope="0.00"/>
        <vehicle id="8" x="212.54" y="2416.54" angle="179.98" type="DEFAULT_VEHTYPE" speed="12.30" pos="56.07" lane="-13681973_0" slope="0.00"/>
        <vehicle id="9" x="7510.42" y="6275.06" angle="93.65" type="DEFAULT_VEHTYPE" speed="10.78" pos="42.03" lane="192952205#5_0" slope="0.00"/>
    </timestep>
    <timestep time="16.00">
        <vehicle id="0" x="631.83" y="3513.94" angle="56.57" type="DEFAULT_VEHTYPE" speed="26.69" pos="8.60" lane=":126052635_3_0" slope="0.00"/>
        <vehicle id="1" x="4630.08" y="6919.05" angle="184.34" type="DEFAULT_VEHTYPE" speed="0.00" pos="5.20" lane="-13682492#2_0" slope="0.00"/>
        <vehicle id="10" x="6762.64" y="3073.72" angle="182.00" type="DEFAULT_VEHTYPE" speed="12.77" pos="49.10" lane="191800399#0_0" slope="0.00"/>
        <vehicle id="11" x="7758.87" y="5112.57" angle="194.86" type="DEFAULT_VEHTYPE" speed="8.50" pos="36.81" lane="-202055016#5_0" slope="0.00"/>
        <vehicle id="12" x="3613.05" y="5483.51" angle="50.35" type="DEFAULT_VEHTYPE" speed="7.51" pos="23.25" lane="895007899#42_0" slope="0.00"/>
        <vehicle id="13" x="5245.41" y="6294.30" angle="0.64" type="DEFAULT_VEHTYPE" speed="6.06" pos="17.52" lane="-13680556_0" slope="0.00"/>
        <vehicle id="14" x="5200.95" y="3943.37" angle="182.10" type="DEFAULT_VEHTYPE" speed="3.78" pos="11.22" lane="292071086#4_0" slope="0.00"/>
        <vehicle id="15" x="6739.20" y="2003.56" angle="180.64" type="DEFAULT_VEHTYPE" speed="2.08" pos="7.18" lane="191800400#5_0" slope="0.00"/>
        <vehicle id="16" x="6900.57" y="6413.34" angle="202.25" type="DEFAULT_VEHTYPE" speed="0.00" pos="5.10" lane="13679417#2_0" slope="0.00"/>
        <vehicle id="2" x="5338.26" y="2138.21" angle="92.40" type="DEFAULT_VEHTYPE" speed="5.13" pos="7.64" lane="-13682432#2_0" slope="0.00"/>
        <vehicle id="3" x="4608.71" y="6705.80" angle="90.63" type="DEFAULT_VEHTYPE" speed="10.94" pos="34.18" lane="-353261802_0" slope="0.00"/>
        <vehicle id="4" x="7679.92" y="3146.55" angle="90.26" type="DEFAULT_VEHTYPE" speed="13.72" pos="43.67" lane="-589357403#3_0" slope="0.00"/>
        <vehicle id="5" x="3351.46" y="4950.11" angle="170.73" type="DEFAULT_VEHTYPE" speed="10.94" pos="72.82" lane="-13681964#10_0" slope="0.00"/>
        <vehicle id="6" x="6669.50" y="5069.61" angle="121.32" type="DEFAULT_VEHTYPE" speed="13.01" pos="102.07" lane="-1291555117#3_0" slope="0.00"/>
        <vehicle id="7" x="3634.56" y="6554.66" angle="293.52" type="DEFAULT_VEHTYPE" speed="11.69" pos="82.13" lane="13681433#4_0" slope="0.00"/>
        <vehicle id="8" x="212.54" y="2403.66" angle="179.98" type="DEFAULT_VEHTYPE" speed="12.88" pos="68.95" lane="-13681973_0" slope="0.00"/>
        <vehicle id="9" x="7522.81" y="6274.02" angle="94.79" type="DEFAULT_VEHTYPE" speed="12.47" pos="54.50" lane="192952205#5_0" slope="0.00"/>
    </timestep>
    <timestep time="17.00">
        <vehicle id="0" x="655.58" y="3528.92" angle="58.06" type="DEFAULT_VEHTYPE" speed="28.09" pos="22.48" lane="613382845#2_0" slope="0.00"/>
        <vehicle id="1" x="4630.08" y="6919.05" angle="184.34" type="DEFAULT_VEHTYPE" speed="0.00" pos="5.20" lane="-13682492#2_0" slope="0.00"/>
        <vehicle id="10" x="6762.13" y="3059.27" angle="182.00" type="DEFAULT_VEHTYPE" speed="14.46" pos="63.56" lane="191800399#0_0" slope="0.00"/>
        <vehicle id="11" x="7756.71" y="5104.47" angle="194.87" type="DEFAULT_VEHTYPE" speed="8.38" pos="45.19" lane="-202055016#5_0" slope="0.00"/>
        <vehicle id="12" x="3620.47" y="5489.52" angle="51.62" type="DEFAULT_VEHTYPE" speed="9.58" pos="32.83" lane="895007899#42_0" slope="0.00"/>
        <vehicle id="13" x="5245.51" y="6302.95" angle="0.64" type="DEFAULT_VEHTYPE" speed="8.65" pos="26.17" lane="-13680556_0" slope="0.00"/>
        <vehicle id="14" x="5200.72" y="3937.14" angle="182.10" type="DEFAULT_VEHTYPE" speed="6.23" pos="17.45" lane="292071086#4_0" slope="0.00"/>
        <vehicle id="15" x="6739.15" y="1998.90" angle="180.64" type="DEFAULT_VEHTYPE" speed="4.66" pos="11.84" lane="191800400#5_0" slope="0.00"/>
        <vehicle id="16" x="6899.67" y="6411.15" angle="202.25" type="DEFAULT_VEHTYPE" speed="2.36" pos="7.46" lane="13679417#2_0" slope="0.00"/>
        <vehicle id="17" x="4614.20" y="4613.19" angle="295.17" type="DEFAULT_VEHTYPE" speed="0.00" pos="5.10" lane="-292119505_0" slope="0.00"/>
        <vehicle id="2" x="5344.73" y="2137.94" angle="92.40" type="DEFAULT_VEHTYPE" speed="6.48" pos="14.12" lane="-13682432#2_0" slope="0.00"/>
        <vehicle id="3" x="4620.68" y="6705.67" angle="90.63" type="DEFAULT_VEHTYPE" speed="11.97" pos="46.14" lane="-353261802_0" slope="0.00"/>
        <vehicle id="4" x="7693.89" y="3146.49" angle="90.26" type="DEFAULT_VEHTYPE" speed="13.97" pos="57.64" lane="-589357403#3_0" slope="0.00"/>
        <vehicle id="5" x="3353.20" y="4939.44" angle="170.73" type="DEFAULT_VEHTYPE" speed="10.81" pos="83.63" lane="-13681964#10_0" slope="0.00"/>
        <vehicle id="6" x="6681.08" y="5062.56" angle="121.32" type="DEFAULT_VEHTYPE" speed="13.55" pos="115.62" lane="-1291555117#3_0" slope="0.00"/>
        <vehicle id="7" x="3624.37" y="6558.94" angle="292.75" type="DEFAULT_VEHTYPE" speed="11.06" pos="93.19" lane="13681433#4_0" slope="0.00"/>
        <vehicle id="8" x="212.54" y="2391.28" angle="179.98" type="DEFAULT_VEHTYPE" speed="12.38" pos="81.33" lane="-13681973_0" slope="0.00"/>
        <vehicle id="9" x="7536.82" y="6272.53" angle="98.42" type="DEFAULT_VEHTYPE" speed="14.15" pos="68.65" lane="192952205#5_0" slope="0.00"/>
    </timestep>
    <timestep time="18.00">
        <vehicle id="0" x="679.58" y="3543.88" angle="58.06" type="DEFAULT_VEHTYPE" speed="28.28" pos="50.75" lane="613382845#2_0" slope="0.00"/>
        <vehicle id="1" x="4630.08" y="6919.05" angle="184.34" type="DEFAULT_VEHTYPE" speed="0.00" pos="5.20" lane="-13682492#2_0" slope="0.00"/>
        <vehicle id="10" x="6761.64" y="3045.14" angle="182.00" type="DEFAULT_VEHTYPE" speed="14.14" pos="77.70" lane="191800399#0_0" slope="0.00"/>
        <vehicle id="11" x="7754.57" y="5096.40" angle="194.91" type="DEFAULT_VEHTYPE" speed="8.35" pos="0.89" lane=":cluster_2023586605_8238352191_1_0" slope="0.00"/>
        <vehicle id="12" x="3629.27" y="5496.24" angle="52.63" type="DEFAULT_VEHTYPE" speed="11.09" pos="43.92" lane="895007899#42_0" slope="0.00"/>
        <vehicle id="13" x="5245.60" y="6311.12" angle="0.64" type="DEFAULT_VEHTYPE" speed="8.17" pos="34.34" lane="-13680556_0" slope="0.00"/>
        <vehicle id="14" x="5201.84" y="3929.24" angle="165.58" type="DEFAULT_VEHTYPE" speed="8.09" pos="3.93" lane=":3315327133_6_0" slope="0.00"/>
        <vehicle id="15" x="6739.08" y="1992.88" angle="180.64" type="DEFAULT_VEHTYPE" speed="6.02" pos="17.86" lane="191800400#5_0" slope="0.00"/>
        <vehicle id="16" x="6898.49" y="6407.63" angle="199.49" type="DEFAULT_VEHTYPE" speed="3.72" pos="11.19" lane="13679417#2_0" slope="0.00"/>
        <vehicle id="17" x="4612.61" y="4613.94" angle="295.17" type="DEFAULT_VEHTYPE" speed="1.76" pos="6.86" lane="-292119505_0" slope="0.00"/>
        <vehicle id="18" x="6825.89" y="5655.48" angle="97.28" type="DEFAULT_VEHTYPE" speed="0.00" pos="5.10" lane="203381204#1_0" slope="0.00"/>
        <vehicle id="2" x="5352.98" y="2137.59" angle="92.40" type="DEFAULT_VEHTYPE" speed="8.26" pos="22.38" lane="-13682432#2_0" slope="0.00"/>
        <vehicle id="3" x="4627.69" y="6699.46" angle="153.19" type="DEFAULT_VEHTYPE" speed="10.27" pos="9.12" lane=":cluster_126054635_3590405545_3819774801_8_0" slope="0.00"/>
        <vehicle id="4" x="7707.06" y="3146.43" angle="90.26" type="DEFAULT_VEHTYPE" speed="13.17" pos="70.81" lane="-589357403#3_0" slope="0.00"/>
        <vehicle id="5" x="3355.05" y="4928.13" angle="170.73" type="DEFAULT_VEHTYPE" speed="11.46" pos="95.09" lane="-13681964#10_0" slope="0.00"/>
        <vehicle id="6" x="6692.26" y="5055.76" angle="121.32" type="DEFAULT_VEHTYPE" speed="13.10" pos="128.72" lane="-1291555117#3_0" slope="0.00"/>
        <vehicle id="7" x="3613.18" y="6563.63" angle="292.75" type="DEFAULT_VEHTYPE" speed="12.14" pos="105.32" lane="13681433#4_0" slope="0.00"/>
        <vehicle id="8" x="212.55" y="2378.76" angle="179.98" type="DEFAULT_VEHTYPE" speed="12.52" pos="93.85" lane="-13681973_0" slope="0.00"/>
        <vehicle id="9" x="7552.91" y="6269.28" angle="101.43" type="DEFAULT_VEHTYPE" speed="16.47" pos="85.12" lane="192952205#5_0" slope="0.00"/>
    </timestep>
    <timestep time="19.00">
        <vehicle id="0" x="703.99" y="3559.11" angle="58.06" type="DEFAULT_VEHTYPE" speed="28.77" pos="79.52" lane="613382845#2_0" slope="0.00"/>
        <vehicle id="1" x="4630.08" y="6919.05" angle="184.34" type="DEFAULT_VEHTYPE" speed="0.00" pos="5.20" lane="-13682492#2_0" slope="0.00"/>