<?xml version="1.0" encoding="UTF-8"?>

<!-- generated on 2025-04-22 18:13:04 by Eclipse SUMO sumo Version 1.22.0
<sumoConfiguration xmlns:xsi="http://www.w3.org/2001/XMLSchema-instance" xsi:noNamespaceSchemaLocation="http://sumo.dlr.de/xsd/sumoConfiguration.xsd">

    <input>
        <net-file value="C:\Users\chand\OneDrive\Desktop\TrafficSignalManagement\data\map.net.xml"/>
        <route-files value="C:\Users\chand\OneDrive\Desktop\TrafficSignalManagement\data\flow2.rou.xml"/>
    </input>

    <output>
        <summary-output value="C:\Users\chand\OneDrive\Desktop\TrafficSignalManagement\data\output/summary.xml"/>
        <tripinfo-output value="C:\Users\chand\OneDrive\Desktop\TrafficSignalManagement\data\output/tripinfo.xml"/>
    </output>

    <time>
        <begin value="0"/>
        <end value="100"/>
        <step-length value="0.1"/>
    </time>

    <processing>
        <emergencydecel.warning-threshold value="9.99"/>
    </processing>

    <report>
        <no-warni-->

<tripinfos xmlns:xsi="http://www.w3.org/2001/XMLSchema-instance" xsi:noNamespaceSchemaLocation="http://sumo.dlr.de/xsd/tripinfo_file.xsd">
</tripinfos>
tance" xsi:noNamespaceSchemaLocation="http://sumo.dlr.de/xsd/tripinfo_file.xsd">
    <tripinfo id="703" depart="4.30" departLane="497742021#9_0" departPos="3.78" departSpeed="0.00" departDelay="0.08" arrival="39.10" arrivalLane="13681013#1_0" arrivalPos="34.00" arrivalSpeed="13.16" duration="34.80" routeLength="296.03" waitingTime="4.10" waitingCount="1" stopTime="0.00" timeLoss="17.57" rerouteNo="0" devices="tripinfo_703" vType="DEFAULT_VEHTYPE" speedFactor="0.95" vaporized=""/>
    <tripinfo id="865" depart="5.20" departLane="13681238#5_0" departPos="5.10" departSpeed="0.00" departDelay="0.01" arrival="48.10" arrivalLane="13681238#7_0" arrivalPos="196.75" arrivalSpeed="13.25" duration="42.90" routeLength="523.47" waitingTime="0.00" waitingCount="0" stopTime="0.00" timeLoss="3.42" rerouteNo="0" devices="tripinfo_865" vType="DEFAULT_VEHTYPE" speedFactor="0.96" vaporized=""/>
    <tripinfo id="1653" depart="10.00" departLane="-180175600#8_0" departPos="5.10" departSpeed="0.00" departDelay="0.08" arrival="52.90" arrivalLane="13682261#3_0" arrivalPos="16.11" arrivalSpeed="13.19" duration="42.90" routeLength="467.62" waitingTime="0.00" waitingCount="0" stopTime="0.00" timeLoss="6.64" rerouteNo="0" devices="tripinfo_1653" vType="DEFAULT_VEHTYPE" speedFactor="0.95" vaporized=""/>
    <tripinfo id="1582" depart="9.50" departLane="-13681299#11_0" departPos="5.10" departSpeed="0.00" departDelay="0.01" arrival="54.50" arrivalLane="-191796249#5_0" arrivalPos="58.41" arrivalSpeed="13.26" duration="45.00" routeLength="452.82" waitingTime="3.70" waitingCount="1" stopTime="0.00" timeLoss="18.51" rerouteNo="0" devices="tripinfo_1582" vType="DEFAULT_VEHTYPE" speedFactor="0.96" vaporized=""/>
    <tripinfo id="337" depart="2.10" departLane="13681151#19_0" departPos="0.81" departSpeed="0.00" departDelay="0.08" arrival="61.10" arrivalLane="13681151#1_0" arrivalPos="58.65" arrivalSpeed="19.71" duration="59.00" routeLength="859.05" waitingTime="0.00" waitingCount="0" stopTime="0.00" timeLoss="13.24" rerouteNo="0" devices="tripinfo_337" vType="DEFAULT_VEHTYPE" speedFactor="0.89" vaporized=""/>
    <tripinfo id="1590" depart="9.60" departLane="129441444#8_0" departPos="5.10" departSpeed="0.00" departDelay="0.06" arrival="64.50" arrivalLane="13681397#3_0" arrivalPos="87.60" arrivalSpeed="14.94" duration="54.90" routeLength="880.84" waitingTime="0.00" waitingCount="0" stopTime="0.00" timeLoss="6.79" rerouteNo="0" devices="tripinfo_1590" vType="DEFAULT_VEHTYPE" speedFactor="1.08" vaporized=""/>
    <tripinfo id="1576" depart="9.50" departLane="202060852#6_0" departPos="1.66" departSpeed="0.00" departDelay="0.04" arrival="65.60" arrivalLane="-13682638#3_0" arrivalPos="119.47" arrivalSpeed="15.01" duration="56.10" routeLength="604.82" waitingTime="2.60" waitingCount="1" stopTime="0.00" timeLoss="12.68" rerouteNo="0" devices="tripinfo_1576" vType="DEFAULT_VEHTYPE" speedFactor="1.09" vaporized=""/>
    <tripinfo id="1228" depart="7.40" departLane="897245048#2_0" departPos="5.10" departSpeed="0.00" departDelay="0.03" arrival="66.30" arrivalLane="-13680663#8_0" arrivalPos="4.50" arrivalSpeed="12.90" duration="58.90" routeLength="601.15" waitingTime="0.70" waitingCount="2" stopTime="0.00" timeLoss="26.61" rerouteNo="0" devices="tripinfo_1228" vType="DEFAULT_VEHTYPE" speedFactor="1.05" vaporized=""/>
    <tripinfo id="232" depart="1.40" departLane="13679723#0_0" departPos="5.10" departSpeed="0.00" departDelay="0.01" arrival="71.50" arrivalLane="-13681151#19_0" arrivalPos="0.81" arrivalSpeed="11.62" duration="70.10" routeLength="563.55" waitingTime="19.70" waitingCount="1" stopTime="0.00" timeLoss="37.33" rerouteNo="0" devices="tripinfo_232" vType="DEFAULT_VEHTYPE" speedFactor="1.14" vaporized=""/>
    <tripinfo id="590" depart="3.60" departLane="207762599#0_0" departPos="5.10" departSpeed="0.00" departDelay="0.06" arrival="72.20" arrivalLane="192952205#1_0" arrivalPos="24.31" arrivalSpeed="13.28" duration="68.60" routeLength="701.35" waitingTime="9.70" waitingCount="1" stopTime="0.00" timeLoss="32.57" rerouteNo="0" devices="tripinfo_590" vType="DEFAULT_VEHTYPE" speedFactor="1.12" vaporized=""/>
    <tripinfo id="723" depart="4.40" departLane="-13679879#2_0" departPos="5.10" departSpeed="0.00" departDelay="0.06" arrival="74.10" arrivalLane="13683097#5_0" arrivalPos="24.51" arrivalSpeed="13.66" duration="69.70" routeLength="772.47" waitingTime="0.00" waitingCount="0" stopTime="0.00" timeLoss="9.81" rerouteNo="0" devices="tripinfo_723" vType="DEFAULT_VEHTYPE" speedFactor="0.99" vaporized=""/>
    <tripinfo id="283" depart="1.70" departLane="-13680663#20_0" departPos="5.10" departSpeed="0.00" departDelay="0.00" arrival="76.80" arrivalLane="895011683#5_2" arrivalPos="42.58" arrivalSpeed="6.88" duration="75.10" routeLength="926.29" waitingTime="0.00" waitingCount="0" stopTime="0.00" timeLoss="15.25" rerouteNo="0" devices="tripinfo_283" vType="DEFAULT_VEHTYPE" speedFactor="0.95" vaporized=""/>
    <tripinfo id="298" depart="1.80" departLane="13682051#1_0" departPos="5.10" departSpeed="0.00" departDelay="0.01" arrival="76.90" arrivalLane="-13682805#1_0" arrivalPos="120.10" arrivalSpeed="15.24" duration="75.10" routeLength="986.83" waitingTime="0.00" waitingCount="0" stopTime="0.00" timeLoss="8.86" rerouteNo="0" devices="tripinfo_298" vType="DEFAULT_VEHTYPE" speedFactor="1.10" vaporized=""/>
    <tripinfo id="444" depart="2.70" departLane="-202055286#7_0" departPos="5.10" departSpeed="0.00" departDelay="0.04" arrival="78.70" arrivalLane="13680903#5_0" arrivalPos="12.75" arrivalSpeed="19.85" duration="76.00" routeLength="1264.01" waitingTime="0.00" waitingCount="0" stopTime="0.00" timeLoss="9.02" rerouteNo="0" devices="tripinfo_444" vType="DEFAULT_VEHTYPE" speedFactor="0.89" vaporized=""/>
    <tripinfo id="1503" depart="9.10" departLane="-13682886_0" departPos="5.10" departSpeed="0.00" departDelay="0.08" arrival="81.20" arrivalLane="-202055014#10_0" arrivalPos="64.29" arrivalSpeed="20.79" duration="72.10" routeLength="1224.03" waitingTime="0.00" waitingCount="0" stopTime="0.00" timeLoss="7.35" rerouteNo="0" devices="tripinfo_1503" vType="DEFAULT_VEHTYPE" speedFactor="0.94" vaporized=""/>
    <tripinfo id="1319" depart="8.00" departLane="-13680185#1_0" departPos="5.10" departSpeed="0.00" departDelay="0.09" arrival="81.50" arrivalLane="-13682494#1_0" arrivalPos="32.72" arrivalSpeed="14.55" duration="73.50" routeLength="584.08" waitingTime="19.80" waitingCount="1" stopTime="0.00" timeLoss="32.03" rerouteNo="0" devices="tripinfo_1319" vType="DEFAULT_VEHTYPE" speedFactor="1.05" vaporized=""/>
    <tripinfo id="478" depart="2.90" departLane="-1223122984#0_0" departPos="0.75" departSpeed="0.00" departDelay="0.03" arrival="83.20" arrivalLane="13680342#5_0" arrivalPos="32.60" arrivalSpeed="14.19" duration="80.30" routeLength="569.82" waitingTime="42.00" waitingCount="1" stopTime="0.00" timeLoss="49.98" rerouteNo="0" devices="tripinfo_478" vType="DEFAULT_VEHTYPE" speedFactor="1.02" vaporized=""/>
    <tripinfo id="141" depart="0.90" departLane="13681297_0" departPos="5.10" departSpeed="0.00" departDelay="0.05" arrival="83.80" arrivalLane="-13682509_0" arrivalPos="136.95" arrivalSpeed="15.43" duration="82.90" routeLength="1089.34" waitingTime="0.00" waitingCount="0" stopTime="0.00" timeLoss="10.36" rerouteNo="0" devices="tripinfo_141" vType="DEFAULT_VEHTYPE" speedFactor="1.11" vaporized=""/>
    <tripinfo id="714" depart="4.30" departLane="-13682386#1_0" departPos="5.10" departSpeed="0.00" departDelay="0.02" arrival="86.10" arrivalLane="-1223122990#0_0" arrivalPos="15.93" arrivalSpeed="8.71" duration="81.80" routeLength="741.13" waitingTime="8.40" waitingCount="2" stopTime="0.00" timeLoss="47.28" rerouteNo="0" devices="tripinfo_714" vType="DEFAULT_VEHTYPE" speedFactor="1.00" vaporized=""/>
    <tripinfo id="139" depart="0.90" departLane="-13682478#3_0" departPos="5.10" departSpeed="0.00" departDelay="0.07" arrival="87.60" arrivalLane="13681098#2_0" arrivalPos="2.57" arrivalSpeed="13.92" duration="86.70" routeLength="1067.67" waitingTime="0.00" waitingCount="0" stopTime="0.00" timeLoss="7.70" rerouteNo="0" devices="tripinfo_139" vType="DEFAULT_VEHTYPE" speedFactor="1.00" vaporized=""/>
    <tripinfo id="379" depart="2.30" departLane="-13681524#60_0" departPos="0.20" departSpeed="0.00" departDelay="0.03" arrival="87.90" arrivalLane="-292119473#7_0" arrivalPos="11.32" arrivalSpeed="15.19" duration="85.60" routeLength="1207.80" waitingTime="0.00" waitingCount="0" stopTime="0.00" timeLoss="7.27" rerouteNo="0" devices="tripinfo_379" vType="DEFAULT_VEHTYPE" speedFactor="1.10" vaporized=""/>
    <tripinfo id="1472" depart="8.90" departLane="-13681071#8_0" departPos="5.10" departSpeed="0.00" departDelay="0.07" arrival="89.40" arrivalLane="-13681393#1_0" arrivalPos="210.32" arrivalSpeed="14.74" duration="80.50" routeLength="1163.97" waitingTime="0.00" waitingCount="0" stopTime="0.00" timeLoss="15.15" rerouteNo="0" devices="tripinfo_1472" vType="DEFAULT_VEHTYPE" speedFactor="1.07" vaporized=""/>
    <tripinfo id="750" depart="4.50" departLane="13681726#3_0" departPos="5.10" departSpeed="0.00" departDelay="0.00" arrival="89.60" arrivalLane="895007899#16_1" arrivalPos="68.60" arrivalSpeed="21.98" duration="85.10" routeLength="1184.85" waitingTime="0.00" waitingCount="0" stopTime="0.00" timeLoss="23.93" rerouteNo="0" devices="tripinfo_750" vType="DEFAULT_VEHTYPE" speedFactor="1.10" vaporized=""/>
    <tripinfo id="769" depart="4.70" departLane="-13680482_0" departPos="5.10" departSpeed="0.00" departDelay="0.09" arrival="94.30" arrivalLane="13681886#1_0" arrivalPos="289.32" arrivalSpeed="14.58" duration="89.60" routeLength="1381.42" waitingTime="0.70" waitingCount="2" stopTime="0.00" timeLoss="16.26" rerouteNo="0" devices="tripinfo_769" vType="DEFAULT_VEHTYPE" speedFactor="1.05" vaporized=""/>
    <tripinfo id="1180" depart="7.10" departLane="292071091#1_0" departPos="5.10" departSpeed="0.00" departDelay="0.02" arrival="94.40" arrivalLane="13681524#11_0" arrivalPos="23.48" arrivalSpeed="15.24" duration="87.30" routeLength="1039.33" waitingTime="0.00" waitingCount="0" stopTime="0.00" timeLoss="19.36" rerouteNo="0" devices="tripinfo_1180" vType="DEFAULT_VEHTYPE" speedFactor="1.15" vaporized=""/>
    <tripinfo id="120" depart="0.80" departLane="-557585569#2_0" departPos="5.10" departSpeed="0.00" departDelay="0.08" arrival="94.80" arrivalLane="13680849#17_0" arrivalPos="162.67" arrivalSpeed="23.68" duration="94.00" routeLength="1306.31" waitingTime="0.00" waitingCount="0" stopTime="0.00" timeLoss="19.87" rerouteNo="0" devices="tripinfo_120" vType="DEFAULT_VEHTYPE" speedFactor="1.07" vaporized=""/>
    <tripinfo id="1258" depart="8.00" departLane="-1159061926#11_0" departPos="5.10" departSpeed="0.00" departDelay="0.45" arrival="95.70" arrivalLane="13683014#6_0" arrivalPos="2.09" arrivalSpeed="13.40" duration="87.70" routeLength="1063.37" waitingTime="0.00" waitingCount="0" stopTime="0.00" timeLoss="23.24" rerouteNo="0" devices="tripinfo_1258" vType="DEFAULT_VEHTYPE" speedFactor="0.97" vaporized=""/>
    <tripinfo id="808" depart="4.90" departLane="1291555117#4_0" departPos="5.10" departSpeed="0.00" departDelay="0.05" arrival="100.80" arrivalLane="13681299#8_0" arrivalPos="59.93" arrivalSpeed="13.25" duration="95.90" routeLength="1112.13" waitingTime="15.70" waitingCount="1" stopTime="0.00" timeLoss="32.34" rerouteNo="0" devices="tripinfo_808" vType="DEFAULT_VEHTYPE" speedFactor="1.10" vaporized=""/>
    <tripinfo id="672" depart="6.60" departLane="209364526_0" departPos="5.10" departSpeed="0.00" departDelay="2.57" arrival="101.80" arrivalLane="-292121802#23_0" arrivalPos="95.26" arrivalSpeed="22.17" duration="95.20" routeLength="1114.83" waitingTime="15.60" waitingCount="1" stopTime="0.00" timeLoss="43.15" rerouteNo="0" devices="tripinfo_672" vType="DEFAULT_VEHTYPE" speedFactor="1.00" vaporized=""/>
    <tripinfo id="482" depart="3.50" departLane="-13680675#3_0" departPos="5.10" departSpeed="0.00" departDelay="0.61" arrival="105.70" arrivalLane="-13682259#5_0" arrivalPos="43.47" arrivalSpeed="13.76" duration="102.20" routeLength="909.11" waitingTime="31.00" waitingCount="1" stopTime="0.00" timeLoss="41.91" rerouteNo="0" devices="tripinfo_482" vType="DEFAULT_VEHTYPE" speedFactor="0.99" vaporized=""/>
    <tripinfo id="1114" depart="6.70" departLane="13680381#3_0" departPos="5.10" departSpeed="0.00" departDelay="0.02" arrival="106.00" arrivalLane="-598082628#3_0" arrivalPos="36.33" arrivalSpeed="12.46" duration="99.30" routeLength="1130.52" waitingTime="0.60" waitingCount="1" stopTime="0.00" timeLoss="15.09" rerouteNo="0" devices="tripinfo_1114" vType="DEFAULT_VEHTYPE" speedFactor="0.99" vaporized=""/>
    <tripinfo id="1546" depart="9.30" departLane="192952203#5_0" departPos="5.10" departSpeed="0.00" departDelay="0.02" arrival="106.40" arrivalLane="-13681030#1_0" arrivalPos="71.63" arrivalSpeed="15.55" duration="97.10" routeLength="1612.66" waitingTime="0.00" waitingCount="0" stopTime="0.00" timeLoss="15.83" rerouteNo="0" devices="tripinfo_1546" vType="DEFAULT_VEHTYPE" speedFactor="1.12" vaporized=""/>
    <tripinfo id="494" depart="3.00" departLane="13682466#1_0" departPos="5.10" departSpeed="0.00" departDelay="0.04" arrival="106.80" arrivalLane="-13681344#1_0" arrivalPos="351.89" arrivalSpeed="14.99" duration="103.80" routeLength="1279.66" waitingTime="3.20" waitingCount="1" stopTime="0.00" timeLoss="17.11" rerouteNo="0" devices="tripinfo_494" vType="DEFAULT_VEHTYPE" speedFactor="1.09" vaporized=""/>
    <tripinfo id="936" depart="5.70" departLane="-13682986#0_0" departPos="5.10" departSpeed="0.00" departDelay="0.08" arrival="106.90" arrivalLane="13682372#1_0" arrivalPos="91.35" arrivalSpeed="12.30" duration="101.20" routeLength="1121.88" waitingTime="0.00" waitingCount="0" stopTime="0.00" timeLoss="12.30" rerouteNo="0" devices="tripinfo_936" vType="DEFAULT_VEHTYPE" speedFactor="0.89" vaporized=""/>
    <tripinfo id="1289" depart="7.80" departLane="-13683176#8_0" departPos="5.10" departSpeed="0.00" departDelay="0.07" arrival="107.00" arrivalLane="299709774#0_1" arrivalPos="21.14" arrivalSpeed="15.90" duration="99.20" routeLength="1335.26" waitingTime="0.00" waitingCount="0" stopTime="0.00" timeLoss="9.22" rerouteNo="0" devices="tripinfo_1289" vType="DEFAULT_VEHTYPE" speedFactor="1.07" vaporized=""/>
    <tripinfo id="803" depart="4.90" departLane="13680436#1_0" departPos="5.10" departSpeed="0.00" departDelay="0.08" arrival="109.50" arrivalLane="203381197#5_0" arrivalPos="68.15" arrivalSpeed="13.66" duration="104.60" routeLength="1344.41" waitingTime="2.50" waitingCount="1" stopTime="0.00" timeLoss="19.84" rerouteNo="0" devices="tripinfo_803" vType="DEFAULT_VEHTYPE" speedFactor="0.99" vaporized=""/>
    <tripinfo id="812" depart="5.30" departLane="-13680342#0_0" departPos="5.10" departSpeed="0.00" departDelay="0.43" arrival="110.30" arrivalLane="-13679723#1_0" arrivalPos="65.49" arrivalSpeed="14.38" duration="105.00" routeLength="1173.00" waitingTime="13.10" waitingCount="2" stopTime="0.00" timeLoss="44.15" rerouteNo="0" devices="tripinfo_812" vType="DEFAULT_VEHTYPE" speedFactor="1.04" vaporized=""/>
    <tripinfo id="1532" depart="9.20" departLane="13681576#24_0" departPos="5.10" departSpeed="0.00" departDelay="0.01" arrival="110.50" arrivalLane="-13680528_0" arrivalPos="435.84" arrivalSpeed="15.70" duration="101.30" routeLength="1512.24" waitingTime="0.00" waitingCount="0" stopTime="0.00" timeLoss="15.06" rerouteNo="0" devices="tripinfo_1532" vType="DEFAULT_VEHTYPE" speedFactor="1.14" vaporized=""/>
    <tripinfo id="764" depart="4.60" departLane="-897245048#0_0" departPos="5.10" departSpeed="0.00" departDelay="0.02" arrival="111.60" arrivalLane="990656282#1_0" arrivalPos="39.96" arrivalSpeed="14.10" duration="107.00" routeLength="1052.55" waitingTime="4.30" waitingCount="2" stopTime="0.00" timeLoss="24.92" rerouteNo="0" devices="tripinfo_764" vType="DEFAULT_VEHTYPE" speedFactor="0.90" vaporized=""/>
    <tripinfo id="949" depart="5.70" departLane="13681524#66_0" departPos="5.10" departSpeed="0.00" departDelay="0.01" arrival="113.50" arrivalLane="-13682089#0_0" arrivalPos="34.25" arrivalSpeed="12.07" duration="107.80" routeLength="831.07" waitingTime="30.60" waitingCount="2" stopTime="0.00" timeLoss="55.08" rerouteNo="0" devices="tripinfo_949" vType="DEFAULT_VEHTYPE" speedFactor="0.90" vaporized=""/>
    <tripinfo id="741" depart="4.50" departLane="-13680423#17_0" departPos="5.10" departSpeed="0.00" departDelay="0.05" arrival="113.70" arrivalLane="13681576#29_0" arrivalPos="99.24" arrivalSpeed="16.08" duration="109.20" routeLength="986.67" waitingTime="37.40" waitingCount="1" stopTime="0.00" timeLoss="67.71" rerouteNo="0" devices="tripinfo_741" vType="DEFAULT_VEHTYPE" speedFactor="1.03" vaporized=""/>
    <tripinfo id="1330" depart="8.00" departLane="13681803#15_0" departPos="5.10" departSpeed="0.00" departDelay="0.02" arrival="114.10" arrivalLane="-13680233#1_0" arrivalPos="90.69" arrivalSpeed="14.11" duration="106.10" routeLength="1420.35" waitingTime="8.80" waitingCount="1" stopTime="0.00" timeLoss="27.45" rerouteNo="0" devices="tripinfo_1330" vType="DEFAULT_VEHTYPE" speedFactor="1.02" vaporized=""/>
    <tripinfo id="566" depart="3.40" departLane="-202055016#2_0" departPos="5.10" departSpeed="0.00" departDelay="0.00" arrival="114.40" arrivalLane="-119655169#1_0" arrivalPos="27.14" arrivalSpeed="15.68" duration="111.00" routeLength="993.45" waitingTime="18.50" waitingCount="2" stopTime="0.00" timeLoss="51.39" rerouteNo="0" devices="tripinfo_566" vType="DEFAULT_VEHTYPE" speedFactor="1.13" vaporized=""/>
    <tripinfo id="468" depart="4.50" departLane="13678720#1_0" departPos="5.10" departSpeed="0.00" departDelay="1.69" arrival="115.40" arrivalLane="589357403#4_0" arrivalPos="69.65" arrivalSpeed="16.71" duration="110.90" routeLength="1457.23" waitingTime="0.00" waitingCount="0" stopTime="0.00" timeLoss="23.64" rerouteNo="0" devices="tripinfo_468" vType="DEFAULT_VEHTYPE" speedFactor="1.21" vaporized=""/>
    <tripinfo id="1367" depart="8.20" departLane="13680347#2_0" departPos="5.10" departSpeed="0.00" departDelay="0.00" arrival="115.60" arrivalLane="-1199248045#2_0" arrivalPos="196.51" arrivalSpeed="23.07" duration="107.40" routeLength="1191.87" waitingTime="20.60" waitingCount="1" stopTime="0.00" timeLoss="50.41" rerouteNo="0" devices="tripinfo_1367" vType="DEFAULT_VEHTYPE" speedFactor="1.04" vaporized=""/>
    <tripinfo id="163" depart="1.00" departLane="-202055012#2_0" departPos="0.56" departSpeed="0.00" departDelay="0.02" arrival="118.20" arrivalLane="809428282#1_0" arrivalPos="56.78" arrivalSpeed="13.66" duration="117.20" routeLength="1398.23" waitingTime="0.00" waitingCount="0" stopTime="0.00" timeLoss="22.35" rerouteNo="0" devices="tripinfo_163" vType="DEFAULT_VEHTYPE" speedFactor="0.99" vaporized=""/>
    <tripinfo id="439" depart="2.70" departLane="-13681103#1_0" departPos="5.10" departSpeed="0.00" departDelay="0.07" arrival="119.80" arrivalLane="1223122991#0_0" arrivalPos="24.09" arrivalSpeed="10.34" duration="117.10" routeLength="1725.66" waitingTime="0.00" waitingCount="0" stopTime="0.00" timeLoss="19.42" rerouteNo="0" devices="tripinfo_439" vType="DEFAULT_VEHTYPE" speedFactor="1.06" vaporized=""/>
    <tripinfo id="1281" depart="7.70" departLane="13682083#5_0" departPos="5.10" departSpeed="0.00" departDelay="0.01" arrival="120.10" arrivalLane="-1158072208#2_0" arrivalPos="25.68" arrivalSpeed="13.25" duration="112.40" routeLength="1311.86" waitingTime="41.50" waitingCount="1" stopTime="0.00" timeLoss="64.96" rerouteNo="0" devices="tripinfo_1281" vType="DEFAULT_VEHTYPE" speedFactor="1.13" vaporized=""/>
    <tripinfo id="1456" depart="8.80" departLane="13680436#1_0" departPos="5.10" departSpeed="0.00" departDelay="0.06" arrival="121.40" arrivalLane="13680617#8_0" arrivalPos="19.89" arrivalSpeed="9.36" duration="112.60" routeLength="1198.01" waitingTime="5.20" waitingCount="2" stopTime="0.00" timeLoss="47.48" rerouteNo="0" devices="tripinfo_1456" vType="DEFAULT_VEHTYPE" speedFactor="1.02" vaporized=""/>
    <tripinfo id="1070" depart="6.50" departLane="-378569209#0_0" departPos="1.83" departSpeed="0.00" departDelay="0.08" arrival="121.50" arrivalLane="13680636#3_0" arrivalPos="0.20" arrivalSpeed="12.99" duration="115.00" routeLength="1569.06" waitingTime="7.20" waitingCount="1" stopTime="0.00" timeLoss="34.91" rerouteNo="0" devices="tripinfo_1070" vType="DEFAULT_VEHTYPE" speedFactor="0.94" vaporized=""/>
    <tripinfo id="1481" depart="9.40" departLane="886582032#1_0" departPos="5.10" departSpeed="0.00" departDelay="0.51" arrival="122.10" arrivalLane="886582021#0_0" arrivalPos="28.17" arrivalSpeed="11.36" duration="112.70" routeLength="1279.56" waitingTime="0.00" waitingCount="0" stopTime="0.00" timeLoss="10.42" rerouteNo="0" devices="tripinfo_1481" vType="DEFAULT_VEHTYPE" speedFactor="0.92" vaporized=""/>
    <tripinfo id="1530" depart="10.30" departLane="-13682051#1_0" departPos="5.10" departSpeed="0.00" departDelay="1.12" arrival="122.10" arrivalLane="-13682619_0" arrivalPos="336.26" arrivalSpeed="14.54" duration="111.80" routeLength="1410.52" waitingTime="0.00" waitingCount="0" stopTime="0.00" timeLoss="12.52" rerouteNo="0" devices="tripinfo_1530" vType="DEFAULT_VEHTYPE" speedFactor="1.06" vaporized=""/>
    <tripinfo id="1173" depart="7.10" departLane="-13680806#11_0" departPos="5.10" departSpeed="0.00" departDelay="0.06" arrival="122.30" arrivalLane="886292835#0_0" arrivalPos="4.39" arrivalSpeed="9.85" duration="115.20" routeLength="1501.74" waitingTime="14.10" waitingCount="1" stopTime="0.00" timeLoss="44.56" rerouteNo="0" devices="tripinfo_1173" vType="DEFAULT_VEHTYPE" speedFactor="1.07" vaporized=""/>
    <tripinfo id="665" depart="4.00" departLane="192952205#2_0" departPos="5.10" departSpeed="0.00" departDelay="0.01" arrival="122.40" arrivalLane="-13681444#3_0" arrivalPos="264.17" arrivalSpeed="12.13" duration="118.40" routeLength="1581.93" waitingTime="0.00" waitingCount="0" stopTime="0.00" timeLoss="14.98" rerouteNo="0" devices="tripinfo_665" vType="DEFAULT_VEHTYPE" speedFactor="0.88" vaporized=""/>
    <tripinfo id="561" depart="4.00" departLane="202055015#0_0" departPos="5.10" departSpeed="0.00" departDelay="0.63" arrival="124.40" arrivalLane="13681151#4_0" arrivalPos="12.69" arrivalSpeed="9.11" duration="120.40" routeLength="1684.31" waitingTime="10.10" waitingCount="1" stopTime="0.00" timeLoss="45.58" rerouteNo="0" devices="tripinfo_561" vType="DEFAULT_VEHTYPE" speedFactor="1.13" vaporized=""/>
    <tripinfo id="849" depart="5.10" departLane="1223122970_0" departPos="5.10" departSpeed="0.00" departDelay="0.01" arrival="126.70" arrivalLane="1223122976#0_1" arrivalPos="77.44" arrivalSpeed="10.84" duration="121.60" routeLength="879.78" waitingTime="67.40" waitingCount="1" stopTime="0.00" timeLoss="83.70" rerouteNo="0" devices="tripinfo_849" vType="DEFAULT_VEHTYPE" speedFactor="1.18" vaporized=""/>
    <tripinfo id="122" depart="0.80" departLane="-13681803#1_0" departPos="5.10" departSpeed="0.00" departDelay="0.07" arrival="127.00" arrivalLane="13682261#6_0" arrivalPos="18.96" arrivalSpeed="15.31" duration="126.20" routeLength="1421.47" waitingTime="27.60" waitingCount="1" stopTime="0.00" timeLoss="62.01" rerouteNo="0" devices="tripinfo_122" vType="DEFAULT_VEHTYPE" speedFactor="1.10" vaporized=""/>
    <tripinfo id="670" depart="4.60" departLane="13679091#0_0" departPos="5.10" departSpeed="0.00" departDelay="0.58" arrival="127.00" arrivalLane="-191786472#0_0" arrivalPos="5.60" arrivalSpeed="10.44" duration="122.40" routeLength="1170.64" waitingTime="7.70" waitingCount="1" stopTime="0.00" timeLoss="54.88" rerouteNo="0" devices="tripinfo_670" vType="DEFAULT_VEHTYPE" speedFactor="1.19" vaporized=""/>
    <tripinfo id="964" depart="5.80" departLane="-315559849#4_0" departPos="5.10" departSpeed="0.00" departDelay="0.02" arrival="130.10" arrivalLane="202055016#0_0" arrivalPos="50.16" arrivalSpeed="8.05" duration="124.30" routeLength="1704.91" waitingTime="0.00" waitingCount="0" stopTime="0.00" timeLoss="8.14" rerouteNo="0" devices="tripinfo_964" vType="DEFAULT_VEHTYPE" speedFactor="0.91" vaporized=""/>
    <tripinfo id="493" depart="3.00" departLane="886580080#0_0" departPos="5.10" departSpeed="0.00" departDelay="0.04" arrival="130.60" arrivalLane="-886578341#0_0" arrivalPos="31.69" arrivalSpeed="11.71" duration="127.60" routeLength="1142.61" waitingTime="29.20" waitingCount="1" stopTime="0.00" timeLoss="54.45" rerouteNo="0" devices="tripinfo_493" vType="DEFAULT_VEHTYPE" speedFactor="1.06" vaporized=""/>
    <tripinfo id="902" depart="5.50" departLane="13682237#33_0" departPos="5.10" departSpeed="0.00" departDelay="0.09" arrival="132.90" arrivalLane="-13680663#2_0" arrivalPos="5.17" arrivalSpeed="6.78" duration="127.40" routeLength="757.77" waitingTime="45.10" waitingCount="5" stopTime="0.00" timeLoss="91.64" rerouteNo="0" devices="tripinfo_902" vType="DEFAULT_VEHTYPE" speedFactor="1.05" vaporized=""/>
    <tripinfo id="193" depart="1.20" departLane="-13680947#2_0" departPos="5.10" departSpeed="0.00" departDelay="0.04" arrival="133.10" arrivalLane="-886580078#0_0" arrivalPos="39.91" arrivalSpeed="15.10" duration="131.90" routeLength="1604.18" waitingTime="0.00" waitingCount="0" stopTime="0.00" timeLoss="22.77" rerouteNo="0" devices="tripinfo_193" vType="DEFAULT_VEHTYPE" speedFactor="1.10" vaporized=""/>
    <tripinfo id="824" depart="5.00" departLane="-13681299#15_0" departPos="2.58" departSpeed="0.00" departDelay="0.06" arrival="133.80" arrivalLane="-202055018#6_0" arrivalPos="16.78" arrivalSpeed="19.24" duration="128.80" routeLength="528.98" waitingTime="56.70" waitingCount="4" stopTime="0.00" timeLoss="98.44" rerouteNo="0" devices="tripinfo_824" vType="DEFAULT_VEHTYPE" speedFactor="0.87" vaporized=""/>
    <tripinfo id="1548" depart="12.30" departLane="-886084921_0" departPos="5.10" departSpeed="0.00" departDelay="3.01" arrival="134.80" arrivalLane="990662002#2_0" arrivalPos="123.08" arrivalSpeed="18.67" duration="122.50" routeLength="813.62" waitingTime="34.40" waitingCount="2" stopTime="0.00" timeLoss="81.03" rerouteNo="0" devices="tripinfo_1548" vType="DEFAULT_VEHTYPE" speedFactor="1.06" vaporized=""/>
    <tripinfo id="381" depart="2.30" departLane="13682730_0" departPos="5.10" departSpeed="0.00" departDelay="0.01" arrival="135.30" arrivalLane="-13681896#3_0" arrivalPos="2.27" arrivalSpeed="12.71" duration="133.00" routeLength="1504.52" waitingTime="0.00" waitingCount="0" stopTime="0.00" timeLoss="23.99" rerouteNo="0" devices="tripinfo_381" vType="DEFAULT_VEHTYPE" speedFactor="0.92" vaporized=""/>
    <tripinfo id="240" depart="1.50" departLane="-292121795#5_0" departPos="5.10" departSpeed="0.00" departDelay="0.06" arrival="136.80" arrivalLane="-119655169#0_0" arrivalPos="16.80" arrivalSpeed="15.62" duration="135.30" routeLength="2410.87" waitingTime="0.00" waitingCount="0" stopTime="0.00" timeLoss="22.40" rerouteNo="0" devices="tripinfo_240" vType="DEFAULT_VEHTYPE" speedFactor="1.13" vaporized=""/>
    <tripinfo id="128" depart="0.80" departLane="-13680342#1_0" departPos="0.20" departSpeed="0.00" departDelay="0.03" arrival="137.10" arrivalLane="-13682042#1_0" arrivalPos="27.22" arrivalSpeed="11.32" duration="136.30" routeLength="2113.10" waitingTime="0.00" waitingCount="0" stopTime="0.00" timeLoss="7.62" rerouteNo="0" devices="tripinfo_128" vType="DEFAULT_VEHTYPE" speedFactor="0.82" vaporized=""/>
    <tripinfo id="540" depart="3.30" departLane="-990656282#0_0" departPos="5.10" departSpeed="0.00" departDelay="0.06" arrival="139.10" arrivalLane="-13682237#19_0" arrivalPos="5.42" arrivalSpeed="22.88" duration="135.80" routeLength="1252.23" waitingTime="31.10" waitingCount="3" stopTime="0.00" timeLoss="68.05" rerouteNo="0" devices="tripinfo_540" vType="DEFAULT_VEHTYPE" speedFactor="1.04" vaporized=""/>
    <tripinfo id="285" depart="1.80" departLane="13682122#3_0" departPos="5.10" departSpeed="0.00" departDelay="0.09" arrival="143.00" arrivalLane="1127409890_0" arrivalPos="0.94" arrivalSpeed="10.51" duration="141.20" routeLength="1320.34" waitingTime="7.20" waitingCount="1" stopTime="0.00" timeLoss="18.77" rerouteNo="0" devices="tripinfo_285" vType="DEFAULT_VEHTYPE" speedFactor="0.76" vaporized=""/>
    <tripinfo id="946" depart="5.70" departLane="13682480#8_0" departPos="5.10" departSpeed="0.00" departDelay="0.02" arrival="143.60" arrivalLane="13681102#10_0" arrivalPos="25.75" arrivalSpeed="12.30" duration="137.90" routeLength="2277.81" waitingTime="0.00" waitingCount="0" stopTime="0.00" timeLoss="14.17" rerouteNo="0" devices="tripinfo_946" vType="DEFAULT_VEHTYPE" speedFactor="0.92" vaporized=""/>