<?xml version="1.0" encoding="UTF-8"?>

<!-- generated on 2025-05-07 12:38:20 by Eclipse SUMO sumo Version 1.22.0
<sumoConfiguration xmlns:xsi="http://www.w3.org/2001/XMLSchema-instance" xsi:noNamespaceSchemaLocation="http://sumo.dlr.de/xsd/sumoConfiguration.xsd">

    <input>
        <net-file value="C:\Users\chand\OneDrive\Desktop\TrafficSignalManagement\data\map.net.xml"/>
        <route-files value="C:\Users\chand\OneDrive\Desktop\TrafficSignalManagement\data\flow2.rou.xml"/>
    </input>

    <output>
        <summary-output value="C:\Users\chand\OneDrive\Desktop\TrafficSignalManagement\data\output/summary.xml"/>
        <tripinfo-output value="C:\Users\chand\OneDrive\Desktop\TrafficSignalManagement\data\output/tripinfo.xml"/>
    </output>

    <time>
        <begin value="0"/>
        <end value="100"/>
        <step-length value="0.1"/>
    </time>

    <processing>
        <emergencydecel.warning-threshold value="9.99"/>
    </processing>

    <report>
        <no-warnings value="true"/>
        <no-step-log value="true"/>
    </report>

</sumoConfiguration>
-->

<tripinfos xmlns:xsi="http://www.w3.org/2001/XMLSchema-instance" xsi:noNamespaceSchemaLocation="http://sumo.dlr.de/xsd/tripinfo_file.xsd">
    <tripinfo id="703" depart="4.30" departLane="497742021#9_0" departPos="3.78" departSpeed="0.00" departDelay="0.08" arrival="39.20" arrivalLane="13681013#1_0" arrivalPos="34.00" arrivalSpeed="13.23" duration="34.90" routeLength="296.03" waitingTime="4.10" waitingCount="1" stopTime="0.00" timeLoss="17.67" rerouteNo="0" devices="tripinfo_703" vType="DEFAULT_VEHTYPE" speedFactor="0.95" vaporized=""/>
    <tripinfo id="865" depart="5.20" departLane="13681238#5_0" departPos="5.10" departSpeed="0.00" departDelay="0.01" arrival="48.10" arrivalLane="13681238#7_0" arrivalPos="196.75" arrivalSpeed="13.26" duration="42.90" routeLength="523.47" waitingTime="0.00" waitingCount="0" stopTime="0.00" timeLoss="3.43" rerouteNo="0" devices="tripinfo_865" vType="DEFAULT_VEHTYPE" speedFactor="0.96" vaporized=""/>
    <tripinfo id="1653" depart="10.00" departLane="-180175600#8_0" departPos="5.10" departSpeed="0.00" departDelay="0.08" arrival="53.00" arrivalLane="13682261#3_0" arrivalPos="16.11" arrivalSpeed="13.20" duration="43.00" routeLength="467.62" waitingTime="0.00" waitingCount="0" stopTime="0.00" timeLoss="6.75" rerouteNo="0" devices="tripinfo_1653" vType="DEFAULT_VEHTYPE" speedFactor="0.95" vaporized=""/>
    <tripinfo id="1582" depart="9.50" departLane="-13681299#11_0" departPos="5.10" departSpeed="0.00" departDelay="0.01" arrival="54.50" arrivalLane="-191796249#5_0" arrivalPos="58.41" arrivalSpeed="13.17" duration="45.00" routeLength="452.82" waitingTime="3.70" waitingCount="1" stopTime="0.00" timeLoss="18.46" rerouteNo="0" devices="tripinfo_1582" vType="DEFAULT_VEHTYPE" speedFactor="0.96" vaporized=""/>
    <tripinfo id="337" depart="2.10" departLane="13681151#19_0" departPos="0.81" departSpeed="0.00" departDelay="0.08" arrival="60.90" arrivalLane="13681151#1_0" arrivalPos="58.65" arrivalSpeed="19.74" duration="58.80" routeLength="859.05" waitingTime="0.00" waitingCount="0" stopTime="0.00" timeLoss="12.91" rerouteNo="0" devices="tripinfo_337" vType="DEFAULT_VEHTYPE" speedFactor="0.89" vaporized=""/>
    <tripinfo id="1590" depart="9.60" departLane="129441444#8_0" departPos="5.10" departSpeed="0.00" departDelay="0.06" arrival="64.40" arrivalLane="13681397#3_0" arrivalPos="87.60" arrivalSpeed="14.89" duration="54.80" routeLength="880.84" waitingTime="0.00" waitingCount="0" stopTime="0.00" timeLoss="6.67" rerouteNo="0" devices="tripinfo_1590" vType="DEFAULT_VEHTYPE" speedFactor="1.08" vaporized=""/>
    <tripinfo id="1576" depart="9.50" departLane="202060852#6_0" departPos="1.66" departSpeed="0.00" departDelay="0.04" arrival="65.50" arrivalLane="-13682638#3_0" arrivalPos="119.47" arrivalSpeed="15.11" duration="56.00" routeLength="604.82" waitingTime="2.60" waitingCount="1" stopTime="0.00" timeLoss="12.50" rerouteNo="0" devices="tripinfo_1576" vType="DEFAULT_VEHTYPE" speedFactor="1.09" vaporized=""/>
    <tripinfo id="1228" depart="7.40" departLane="897245048#2_0" departPos="5.10" departSpeed="0.00" departDelay="0.03" arrival="66.20" arrivalLane="-13680663#8_0" arrivalPos="4.50" arrivalSpeed="13.05" duration="58.80" routeLength="601.15" waitingTime="0.70" waitingCount="2" stopTime="0.00" timeLoss="26.37" rerouteNo="0" devices="tripinfo_1228" vType="DEFAULT_VEHTYPE" speedFactor="1.05" vaporized=""/>
    <tripinfo id="590" depart="3.60" departLane="207762599#0_0" departPos="5.10" departSpeed="0.00" departDelay="0.06" arrival="72.30" arrivalLane="192952205#1_0" arrivalPos="24.31" arrivalSpeed="13.18" duration="68.70" routeLength="701.35" waitingTime="9.70" waitingCount="1" stopTime="0.00" timeLoss="32.61" rerouteNo="0" devices="tripinfo_590" vType="DEFAULT_VEHTYPE" speedFactor="1.12" vaporized=""/>
    <tripinfo id="723" depart="4.40" departLane="-13679879#2_0" departPos="5.10" departSpeed="0.00" departDelay="0.06" arrival="74.10" arrivalLane="13683097#5_0" arrivalPos="24.51" arrivalSpeed="13.62" duration="69.70" routeLength="772.47" waitingTime="0.00" waitingCount="0" stopTime="0.00" timeLoss="9.74" rerouteNo="0" devices="tripinfo_723" vType="DEFAULT_VEHTYPE" speedFactor="0.99" vaporized=""/>
    <tripinfo id="298" depart="1.80" departLane="13682051#1_0" departPos="5.10" departSpeed="0.00" departDelay="0.01" arrival="77.00" arrivalLane="-13682805#1_0" arrivalPos="120.10" arrivalSpeed="15.23" duration="75.20" routeLength="986.83" waitingTime="0.00" waitingCount="0" stopTime="0.00" timeLoss="8.86" rerouteNo="0" devices="tripinfo_298" vType="DEFAULT_VEHTYPE" speedFactor="1.10" vaporized=""/>
    <tripinfo id="283" depart="1.70" departLane="-13680663#20_0" departPos="5.10" departSpeed="0.00" departDelay="0.00" arrival="77.30" arrivalLane="895011683#5_2" arrivalPos="42.58" arrivalSpeed="6.50" duration="75.60" routeLength="926.29" waitingTime="0.00" waitingCount="0" stopTime="0.00" timeLoss="15.77" rerouteNo="0" devices="tripinfo_283" vType="DEFAULT_VEHTYPE" speedFactor="0.95" vaporized=""/>
    <tripinfo id="232" depart="1.40" departLane="13679723#0_0" departPos="5.10" departSpeed="0.00" departDelay="0.01" arrival="77.40" arrivalLane="-13681151#19_0" arrivalPos="0.81" arrivalSpeed="11.71" duration="76.00" routeLength="563.55" waitingTime="25.60" waitingCount="1" stopTime="0.00" timeLoss="43.19" rerouteNo="0" devices="tripinfo_232" vType="DEFAULT_VEHTYPE" speedFactor="1.14" vaporized=""/>
    <tripinfo id="949" depart="5.70" departLane="13681524#66_0" departPos="5.10" departSpeed="0.00" departDelay="0.01" arrival="77.60" arrivalLane="-13682089#0_0" arrivalPos="34.25" arrivalSpeed="11.93" duration="71.90" routeLength="831.07" waitingTime="4.70" waitingCount="1" stopTime="0.00" timeLoss="19.13" rerouteNo="0" devices="tripinfo_949" vType="DEFAULT_VEHTYPE" speedFactor="0.90" vaporized=""/>
    <tripinfo id="808" depart="4.90" departLane="1291555117#4_0" departPos="5.10" departSpeed="0.00" departDelay="0.05" arrival="81.30" arrivalLane="13681299#8_1" arrivalPos="59.93" arrivalSpeed="24.29" duration="76.40" routeLength="1112.13" waitingTime="0.00" waitingCount="0" stopTime="0.00" timeLoss="12.82" rerouteNo="0" devices="tripinfo_808" vType="DEFAULT_VEHTYPE" speedFactor="1.10" vaporized=""/>
    <tripinfo id="1503" depart="9.10" departLane="-13682886_0" departPos="5.10" departSpeed="0.00" departDelay="0.08" arrival="81.30" arrivalLane="-202055014#10_0" arrivalPos="64.29" arrivalSpeed="20.79" duration="72.20" routeLength="1224.03" waitingTime="0.00" waitingCount="0" stopTime="0.00" timeLoss="7.53" rerouteNo="0" devices="tripinfo_1503" vType="DEFAULT_VEHTYPE" speedFactor="0.94" vaporized=""/>
    <tripinfo id="1319" depart="8.00" departLane="-13680185#1_0" departPos="5.10" departSpeed="0.00" departDelay="0.09" arrival="81.40" arrivalLane="-13682494#1_0" arrivalPos="32.72" arrivalSpeed="14.56" duration="73.40" routeLength="584.08" waitingTime="19.80" waitingCount="1" stopTime="0.00" timeLoss="31.95" rerouteNo="0" devices="tripinfo_1319" vType="DEFAULT_VEHTYPE" speedFactor="1.05" vaporized=""/>
    <tripinfo id="478" depart="2.90" departLane="-1223122984#0_0" departPos="0.75" departSpeed="0.00" departDelay="0.03" arrival="83.10" arrivalLane="13680342#5_0" arrivalPos="32.60" arrivalSpeed="14.17" duration="80.20" routeLength="569.82" waitingTime="42.00" waitingCount="1" stopTime="0.00" timeLoss="49.83" rerouteNo="0" devices="tripinfo_478" vType="DEFAULT_VEHTYPE" speedFactor="1.02" vaporized=""/>
    <tripinfo id="141" depart="0.90" departLane="13681297_0" departPos="5.10" departSpeed="0.00" departDelay="0.05" arrival="83.70" arrivalLane="-13682509_0" arrivalPos="136.95" arrivalSpeed="15.39" duration="82.80" routeLength="1089.34" waitingTime="0.00" waitingCount="0" stopTime="0.00" timeLoss="10.32" rerouteNo="0" devices="tripinfo_141" vType="DEFAULT_VEHTYPE" speedFactor="1.11" vaporized=""/>
    <tripinfo id="714" depart="4.30" departLane="-13682386#1_0" departPos="5.10" departSpeed="0.00" departDelay="0.02" arrival="86.20" arrivalLane="-1223122990#0_0" arrivalPos="15.93" arrivalSpeed="8.62" duration="81.90" routeLength="741.13" waitingTime="8.50" waitingCount="2" stopTime="0.00" timeLoss="47.45" rerouteNo="0" devices="tripinfo_714" vType="DEFAULT_VEHTYPE" speedFactor="1.00" vaporized=""/>
    <tripinfo id="139" depart="0.90" departLane="-13682478#3_0" departPos="5.10" departSpeed="0.00" departDelay="0.07" arrival="87.70" arrivalLane="13681098#2_0" arrivalPos="2.57" arrivalSpeed="13.85" duration="86.80" routeLength="1067.67" waitingTime="0.00" waitingCount="0" stopTime="0.00" timeLoss="7.76" rerouteNo="0" devices="tripinfo_139" vType="DEFAULT_VEHTYPE" speedFactor="1.00" vaporized=""/>
    <tripinfo id="379" depart="2.30" departLane="-13681524#60_0" departPos="0.20" departSpeed="0.00" departDelay="0.03" arrival="87.80" arrivalLane="-292119473#7_0" arrivalPos="11.32" arrivalSpeed="15.10" duration="85.50" routeLength="1207.80" waitingTime="0.00" waitingCount="0" stopTime="0.00" timeLoss="7.20" rerouteNo="0" devices="tripinfo_379" vType="DEFAULT_VEHTYPE" speedFactor="1.10" vaporized=""/>
    <tripinfo id="1472" depart="8.90" departLane="-13681071#8_0" departPos="5.10" departSpeed="0.00" departDelay="0.07" arrival="89.50" arrivalLane="-13681393#1_0" arrivalPos="210.32" arrivalSpeed="14.77" duration="80.60" routeLength="1163.97" waitingTime="0.00" waitingCount="0" stopTime="0.00" timeLoss="15.26" rerouteNo="0" devices="tripinfo_1472" vType="DEFAULT_VEHTYPE" speedFactor="1.07" vaporized=""/>
    <tripinfo id="750" depart="4.50" departLane="13681726#3_0" departPos="5.10" departSpeed="0.00" departDelay="0.00" arrival="91.00" arrivalLane="895007899#16_1" arrivalPos="68.60" arrivalSpeed="22.01" duration="86.50" routeLength="1184.85" waitingTime="4.90" waitingCount="1" stopTime="0.00" timeLoss="25.34" rerouteNo="0" devices="tripinfo_750" vType="DEFAULT_VEHTYPE" speedFactor="1.10" vaporized=""/>
    <tripinfo id="646" depart="3.90" departLane="895011686#6_0" departPos="5.10" departSpeed="0.00" departDelay="0.02" arrival="92.00" arrivalLane="13682089#1_0" arrivalPos="141.10" arrivalSpeed="13.57" duration="88.10" routeLength="1076.12" waitingTime="0.00" waitingCount="0" stopTime="0.00" timeLoss="13.55" rerouteNo="0" devices="tripinfo_646" vType="DEFAULT_VEHTYPE" speedFactor="0.98" vaporized=""/>
    <tripinfo id="1463" depart="8.80" departLane="-13681687#0_0" departPos="5.10" departSpeed="0.00" departDelay="0.02" arrival="93.00" arrivalLane="-13681086#1_0" arrivalPos="163.32" arrivalSpeed="14.06" duration="84.20" routeLength="1201.96" waitingTime="0.00" waitingCount="0" stopTime="0.00" timeLoss="20.63" rerouteNo="0" devices="tripinfo_1463" vType="DEFAULT_VEHTYPE" speedFactor="1.02" vaporized=""/>
    <tripinfo id="769" depart="4.70" departLane="-13680482_0" departPos="5.10" departSpeed="0.00" departDelay="0.09" arrival="94.40" arrivalLane="13681886#1_0" arrivalPos="289.32" arrivalSpeed="14.60" duration="89.70" routeLength="1381.42" waitingTime="0.80" waitingCount="2" stopTime="0.00" timeLoss="16.38" rerouteNo="0" devices="tripinfo_769" vType="DEFAULT_VEHTYPE" speedFactor="1.05" vaporized=""/>
    <tripinfo id="1180" depart="7.10" departLane="292071091#1_0" departPos="5.10" departSpeed="0.00" departDelay="0.02" arrival="94.40" arrivalLane="13681524#11_0" arrivalPos="23.48" arrivalSpeed="15.42" duration="87.30" routeLength="1039.33" waitingTime="0.00" waitingCount="0" stopTime="0.00" timeLoss="19.33" rerouteNo="0" devices="tripinfo_1180" vType="DEFAULT_VEHTYPE" speedFactor="1.15" vaporized=""/>
    <tripinfo id="120" depart="0.80" departLane="-557585569#2_0" departPos="5.10" departSpeed="0.00" departDelay="0.08" arrival="95.40" arrivalLane="13680849#17_0" arrivalPos="162.67" arrivalSpeed="23.68" duration="94.60" routeLength="1306.31" waitingTime="0.00" waitingCount="0" stopTime="0.00" timeLoss="20.50" rerouteNo="0" devices="tripinfo_120" vType="DEFAULT_VEHTYPE" speedFactor="1.07" vaporized=""/>
    <tripinfo id="444" depart="2.70" departLane="-202055286#7_0" departPos="5.10" departSpeed="0.00" departDelay="0.04" arrival="95.40" arrivalLane="13680903#5_0" arrivalPos="12.75" arrivalSpeed="19.81" duration="92.70" routeLength="1264.01" waitingTime="5.90" waitingCount="1" stopTime="0.00" timeLoss="25.74" rerouteNo="0" devices="tripinfo_444" vType="DEFAULT_VEHTYPE" speedFactor="0.89" vaporized=""/>
    <tripinfo id="561" depart="4.00" departLane="202055015#0_0" departPos="5.10" departSpeed="0.00" departDelay="0.63" arrival="98.20" arrivalLane="13681151#4_0" arrivalPos="12.69" arrivalSpeed="8.96" duration="94.20" routeLength="1684.31" waitingTime="0.00" waitingCount="0" stopTime="0.00" timeLoss="19.40" rerouteNo="0" devices="tripinfo_561" vType="DEFAULT_VEHTYPE" speedFactor="1.13" vaporized=""/>
    <tripinfo id="672" depart="6.60" departLane="209364526_0" departPos="5.10" departSpeed="0.00" departDelay="2.57" arrival="101.70" arrivalLane="-292121802#23_0" arrivalPos="95.26" arrivalSpeed="22.08" duration="95.10" routeLength="1114.83" waitingTime="15.70" waitingCount="1" stopTime="0.00" timeLoss="43.00" rerouteNo="0" devices="tripinfo_672" vType="DEFAULT_VEHTYPE" speedFactor="1.00" vaporized=""/>
    <tripinfo id="1070" depart="6.50" departLane="-378569209#0_0" departPos="1.83" departSpeed="0.00" departDelay="0.08" arrival="103.10" arrivalLane="13680636#3_0" arrivalPos="0.20" arrivalSpeed="12.92" duration="96.60" routeLength="1569.06" waitingTime="1.80" waitingCount="1" stopTime="0.00" timeLoss="16.55" rerouteNo="0" devices="tripinfo_1070" vType="DEFAULT_VEHTYPE" speedFactor="0.94" vaporized=""/>
    <tripinfo id="482" depart="3.50" departLane="-13680675#3_0" departPos="5.10" departSpeed="0.00" departDelay="0.61" arrival="105.70" arrivalLane="-13682259#5_0" arrivalPos="43.47" arrivalSpeed="13.73" duration="102.20" routeLength="909.11" waitingTime="31.00" waitingCount="1" stopTime="0.00" timeLoss="41.95" rerouteNo="0" devices="tripinfo_482" vType="DEFAULT_VEHTYPE" speedFactor="0.99" vaporized=""/>
    <tripinfo id="1114" depart="6.70" departLane="13680381#3_0" departPos="5.10" departSpeed="0.00" departDelay="0.02" arrival="105.70" arrivalLane="-598082628#3_0" arrivalPos="36.33" arrivalSpeed="12.57" duration="99.00" routeLength="1130.52" waitingTime="0.50" waitingCount="1" stopTime="0.00" timeLoss="14.81" rerouteNo="0" devices="tripinfo_1114" vType="DEFAULT_VEHTYPE" speedFactor="0.99" vaporized=""/>
    <tripinfo id="494" depart="3.00" departLane="13682466#1_0" departPos="5.10" departSpeed="0.00" departDelay="0.04" arrival="106.50" arrivalLane="-13681344#1_0" arrivalPos="351.89" arrivalSpeed="14.99" duration="103.50" routeLength="1279.66" waitingTime="3.20" waitingCount="1" stopTime="0.00" timeLoss="16.77" rerouteNo="0" devices="tripinfo_494" vType="DEFAULT_VEHTYPE" speedFactor="1.09" vaporized=""/>
    <tripinfo id="1546" depart="9.30" departLane="192952203#5_0" departPos="5.10" departSpeed="0.00" departDelay="0.02" arrival="106.60" arrivalLane="-13681030#1_0" arrivalPos="71.63" arrivalSpeed="15.47" duration="97.30" routeLength="1612.66" waitingTime="0.00" waitingCount="0" stopTime="0.00" timeLoss="15.99" rerouteNo="0" devices="tripinfo_1546" vType="DEFAULT_VEHTYPE" speedFactor="1.12" vaporized=""/>
    <tripinfo id="936" depart="5.70" departLane="-13682986#0_0" departPos="5.10" departSpeed="0.00" departDelay="0.08" arrival="107.00" arrivalLane="13682372#1_0" arrivalPos="91.35" arrivalSpeed="12.30" duration="101.30" routeLength="1121.88" waitingTime="0.00" waitingCount="0" stopTime="0.00" timeLoss="12.52" rerouteNo="0" devices="tripinfo_936" vType="DEFAULT_VEHTYPE" speedFactor="0.89" vaporized=""/>
    <tripinfo id="1289" depart="7.80" departLane="-13683176#8_0" departPos="5.10" departSpeed="0.00" departDelay="0.07" arrival="107.20" arrivalLane="299709774#0_1" arrivalPos="21.14" arrivalSpeed="15.91" duration="99.40" routeLength="1335.26" waitingTime="0.00" waitingCount="0" stopTime="0.00" timeLoss="9.39" rerouteNo="0" devices="tripinfo_1289" vType="DEFAULT_VEHTYPE" speedFactor="1.07" vaporized=""/>
    <tripinfo id="1258" depart="8.00" departLane="-1159061926#11_0" departPos="5.10" departSpeed="0.00" departDelay="0.45" arrival="107.90" arrivalLane="13683014#6_0" arrivalPos="2.09" arrivalSpeed="13.43" duration="99.90" routeLength="1063.37" waitingTime="11.90" waitingCount="1" stopTime="0.00" timeLoss="35.44" rerouteNo="0" devices="tripinfo_1258" vType="DEFAULT_VEHTYPE" speedFactor="0.97" vaporized=""/>
    <tripinfo id="399" depart="2.40" departLane="1298127589#0_0" departPos="5.10" departSpeed="0.00" departDelay="0.01" arrival="109.00" arrivalLane="202055018#9_0" arrivalPos="15.80" arrivalSpeed="21.82" duration="106.60" routeLength="1432.87" waitingTime="12.70" waitingCount="3" stopTime="0.00" timeLoss="38.88" rerouteNo="0" devices="tripinfo_399" vType="DEFAULT_VEHTYPE" speedFactor="0.98" vaporized=""/>
    <tripinfo id="803" depart="4.90" departLane="13680436#1_0" departPos="5.10" departSpeed="0.00" departDelay="0.08" arrival="109.50" arrivalLane="203381197#5_0" arrivalPos="68.15" arrivalSpeed="13.71" duration="104.60" routeLength="1344.41" waitingTime="0.30" waitingCount="1" stopTime="0.00" timeLoss="19.87" rerouteNo="0" devices="tripinfo_803" vType="DEFAULT_VEHTYPE" speedFactor="0.99" vaporized=""/>
    <tripinfo id="573" depart="3.50" departLane="13683014#4_0" departPos="0.20" departSpeed="0.00" departDelay="0.06" arrival="110.10" arrivalLane="13680663#1_0" arrivalPos="1.25" arrivalSpeed="13.55" duration="106.60" routeLength="303.20" waitingTime="61.90" waitingCount="2" stopTime="0.00" timeLoss="85.90" rerouteNo="0" devices="tripinfo_573" vType="DEFAULT_VEHTYPE" speedFactor="1.07" vaporized=""/>
    <tripinfo id="1532" depart="9.20" departLane="13681576#24_0" departPos="5.10" departSpeed="0.00" departDelay="0.01" arrival="110.40" arrivalLane="-13680528_0" arrivalPos="435.84" arrivalSpeed="15.79" duration="101.20" routeLength="1512.24" waitingTime="0.00" waitingCount="0" stopTime="0.00" timeLoss="14.99" rerouteNo="0" devices="tripinfo_1532" vType="DEFAULT_VEHTYPE" speedFactor="1.14" vaporized=""/>
    <tripinfo id="812" depart="5.30" departLane="-13680342#0_0" departPos="5.10" departSpeed="0.00" departDelay="0.43" arrival="111.50" arrivalLane="-13679723#1_0" arrivalPos="65.49" arrivalSpeed="14.46" duration="106.20" routeLength="1173.00" waitingTime="13.20" waitingCount="2" stopTime="0.00" timeLoss="45.35" rerouteNo="0" devices="tripinfo_812" vType="DEFAULT_VEHTYPE" speedFactor="1.04" vaporized=""/>
    <tripinfo id="764" depart="4.60" departLane="-897245048#0_0" departPos="5.10" departSpeed="0.00" departDelay="0.02" arrival="111.80" arrivalLane="990656282#1_0" arrivalPos="39.96" arrivalSpeed="13.65" duration="107.20" routeLength="1052.55" waitingTime="4.30" waitingCount="2" stopTime="0.00" timeLoss="25.06" rerouteNo="0" devices="tripinfo_764" vType="DEFAULT_VEHTYPE" speedFactor="0.90" vaporized=""/>
    <tripinfo id="741" depart="4.50" departLane="-13680423#17_0" departPos="5.10" departSpeed="0.00" departDelay="0.05" arrival="113.90" arrivalLane="13681576#29_0" arrivalPos="99.24" arrivalSpeed="16.02" duration="109.40" routeLength="986.67" waitingTime="37.60" waitingCount="1" stopTime="0.00" timeLoss="67.88" rerouteNo="0" devices="tripinfo_741" vType="DEFAULT_VEHTYPE" speedFactor="1.03" vaporized=""/>
    <tripinfo id="566" depart="3.40" departLane="-202055016#2_0" departPos="5.10" departSpeed="0.00" departDelay="0.00" arrival="114.30" arrivalLane="-119655169#1_0" arrivalPos="27.14" arrivalSpeed="15.68" duration="110.90" routeLength="993.45" waitingTime="18.50" waitingCount="2" stopTime="0.00" timeLoss="51.25" rerouteNo="0" devices="tripinfo_566" vType="DEFAULT_VEHTYPE" speedFactor="1.13" vaporized=""/>
    <tripinfo id="468" depart="4.50" departLane="13678720#1_0" departPos="5.10" departSpeed="0.00" departDelay="1.69" arrival="115.50" arrivalLane="589357403#4_0" arrivalPos="69.65" arrivalSpeed="16.81" duration="111.00" routeLength="1457.23" waitingTime="0.00" waitingCount="0" stopTime="0.00" timeLoss="23.70" rerouteNo="0" devices="tripinfo_468" vType="DEFAULT_VEHTYPE" speedFactor="1.21" vaporized=""/>
    <tripinfo id="1367" depart="8.20" departLane="13680347#2_0" departPos="5.10" departSpeed="0.00" departDelay="0.00" arrival="115.70" arrivalLane="-1199248045#2_0" arrivalPos="196.51" arrivalSpeed="23.02" duration="107.50" routeLength="1191.87" waitingTime="20.70" waitingCount="1" stopTime="0.00" timeLoss="50.60" rerouteNo="0" devices="tripinfo_1367" vType="DEFAULT_VEHTYPE" speedFactor="1.04" vaporized=""/>
    <tripinfo id="163" depart="1.00" departLane="-202055012#2_0" departPos="0.56" departSpeed="0.00" departDelay="0.02" arrival="118.00" arrivalLane="809428282#1_0" arrivalPos="56.78" arrivalSpeed="13.72" duration="117.00" routeLength="1398.23" waitingTime="0.00" waitingCount="0" stopTime="0.00" timeLoss="22.16" rerouteNo="0" devices="tripinfo_163" vType="DEFAULT_VEHTYPE" speedFactor="0.99" vaporized=""/>
    <tripinfo id="439" depart="2.70" departLane="-13681103#1_0" departPos="5.10" departSpeed="0.00" departDelay="0.07" arrival="119.60" arrivalLane="1223122991#0_0" arrivalPos="24.09" arrivalSpeed="10.19" duration="116.90" routeLength="1725.66" waitingTime="0.00" waitingCount="0" stopTime="0.00" timeLoss="19.28" rerouteNo="0" devices="tripinfo_439" vType="DEFAULT_VEHTYPE" speedFactor="1.06" vaporized=""/>
    <tripinfo id="1281" depart="7.70" departLane="13682083#5_0" departPos="5.10" departSpeed="0.00" departDelay="0.01" arrival="120.20" arrivalLane="-1158072208#2_0" arrivalPos="25.68" arrivalSpeed="13.28" duration="112.50" routeLength="1311.86" waitingTime="41.50" waitingCount="1" stopTime="0.00" timeLoss="64.98" rerouteNo="0" devices="tripinfo_1281" vType="DEFAULT_VEHTYPE" speedFactor="1.13" vaporized=""/>
    <tripinfo id="1330" depart="8.00" departLane="13681803#15_0" departPos="5.10" departSpeed="0.00" departDelay="0.02" arrival="120.90" arrivalLane="-13680233#1_0" arrivalPos="90.69" arrivalSpeed="14.09" duration="112.90" routeLength="1420.35" waitingTime="15.50" waitingCount="1" stopTime="0.00" timeLoss="34.18" rerouteNo="0" devices="tripinfo_1330" vType="DEFAULT_VEHTYPE" speedFactor="1.02" vaporized=""/>
    <tripinfo id="1456" depart="8.80" departLane="13680436#1_0" departPos="5.10" departSpeed="0.00" departDelay="0.06" arrival="121.30" arrivalLane="13680617#8_0" arrivalPos="19.89" arrivalSpeed="9.64" duration="112.50" routeLength="1198.01" waitingTime="5.50" waitingCount="2" stopTime="0.00" timeLoss="47.30" rerouteNo="0" devices="tripinfo_1456" vType="DEFAULT_VEHTYPE" speedFactor="1.02" vaporized=""/>
    <tripinfo id="1530" depart="10.30" departLane="-13682051#1_0" departPos="5.10" departSpeed="0.00" departDelay="1.12" arrival="122.00" arrivalLane="-13682619_0" arrivalPos="336.26" arrivalSpeed="14.64" duration="111.70" routeLength="1410.52" waitingTime="0.00" waitingCount="0" stopTime="0.00" timeLoss="12.37" rerouteNo="0" devices="tripinfo_1530" vType="DEFAULT_VEHTYPE" speedFactor="1.06" vaporized=""/>
    <tripinfo id="665" depart="4.00" departLane="192952205#2_0" departPos="5.10" departSpeed="0.00" departDelay="0.01" arrival="122.50" arrivalLane="-13681444#3_0" arrivalPos="264.17" arrivalSpeed="12.15" duration="118.50" routeLength="1581.93" waitingTime="0.00" waitingCount="0" stopTime="0.00" timeLoss="15.26" rerouteNo="0" devices="tripinfo_665" vType="DEFAULT_VEHTYPE" speedFactor="0.88" vaporized=""/>
    <tripinfo id="1173" depart="7.10" departLane="-13680806#11_0" departPos="5.10" departSpeed="0.00" departDelay="0.06" arrival="122.60" arrivalLane="886292835#0_0" arrivalPos="4.39" arrivalSpeed="9.51" duration="115.50" routeLength="1501.74" waitingTime="14.20" waitingCount="1" stopTime="0.00" timeLoss="44.69" rerouteNo="0" devices="tripinfo_1173" vType="DEFAULT_VEHTYPE" speedFactor="1.07" vaporized=""/>
    <tripinfo id="474" depart="2.90" departLane="895011686#24_0" departPos="5.10" departSpeed="0.00" departDelay="0.06" arrival="125.60" arrivalLane="292119473#0_0" arrivalPos="11.91" arrivalSpeed="7.64" duration="122.70" routeLength="1545.16" waitingTime="0.00" waitingCount="0" stopTime="0.00" timeLoss="14.16" rerouteNo="0" devices="tripinfo_474" vType="DEFAULT_VEHTYPE" speedFactor="1.04" vaporized=""/>
    <tripinfo id="849" depart="5.10" departLane="1223122970_0" departPos="5.10" departSpeed="0.00" departDelay="0.01" arrival="126.40" arrivalLane="1223122976#0_1" arrivalPos="77.44" arrivalSpeed="10.98" duration="121.30" routeLength="879.78" waitingTime="67.40" waitingCount="1" stopTime="0.00" timeLoss="83.40" rerouteNo="0" devices="tripinfo_849" vType="DEFAULT_VEHTYPE" speedFactor="1.18" vaporized=""/>
    <tripinfo id="1481" depart="9.40" departLane="886582032#1_0" departPos="5.10" departSpeed="0.00" departDelay="0.51" arrival="126.40" arrivalLane="886582021#0_0" arrivalPos="28.17" arrivalSpeed="11.23" duration="117.00" routeLength="1279.56" waitingTime="3.00" waitingCount="1" stopTime="0.00" timeLoss="14.73" rerouteNo="0" devices="tripinfo_1481" vType="DEFAULT_VEHTYPE" speedFactor="0.92" vaporized=""/>
    <tripinfo id="122" depart="0.80" departLane="-13681803#1_0" departPos="5.10" departSpeed="0.00" departDelay="0.07" arrival="126.60" arrivalLane="13682261#6_0" arrivalPos="18.96" arrivalSpeed="15.25" duration="125.80" routeLength="1421.47" waitingTime="27.60" waitingCount="1" stopTime="0.00" timeLoss="61.67" rerouteNo="0" devices="tripinfo_122" vType="DEFAULT_VEHTYPE" speedFactor="1.10" vaporized=""/>
    <tripinfo id="670" depart="4.60" departLane="13679091#0_0" departPos="5.10" departSpeed="0.00" departDelay="0.58" arrival="126.90" arrivalLane="-191786472#0_0" arrivalPos="5.60" arrivalSpeed="10.54" duration="122.30" routeLength="1170.64" waitingTime="8.10" waitingCount="1" stopTime="0.00" timeLoss="54.72" rerouteNo="0" devices="tripinfo_670" vType="DEFAULT_VEHTYPE" speedFactor="1.19" vaporized=""/>
    <tripinfo id="1102" depart="6.70" departLane="1223623589#0_0" departPos="5.10" departSpeed="0.00" departDelay="0.09" arrival="127.80" arrivalLane="-292114870_0" arrivalPos="196.79" arrivalSpeed="9.33" duration="121.10" routeLength="1336.75" waitingTime="0.00" waitingCount="0" stopTime="0.00" timeLoss="5.78" rerouteNo="0" devices="tripinfo_1102" vType="DEFAULT_VEHTYPE" speedFactor="0.68" vaporized=""/>
    <tripinfo id="964" depart="5.80" departLane="-315559849#4_0" departPos="5.10" departSpeed="0.00" departDelay="0.02" arrival="130.00" arrivalLane="202055016#0_0" arrivalPos="50.16" arrivalSpeed="8.07" duration="124.20" routeLength="1704.91" waitingTime="0.00" waitingCount="0" stopTime="0.00" timeLoss="8.20" rerouteNo="0" devices="tripinfo_964" vType="DEFAULT_VEHTYPE" speedFactor="0.91" vaporized=""/>
    <tripinfo id="493" depart="3.00" departLane="886580080#0_0" departPos="5.10" departSpeed="0.00" departDelay="0.04" arrival="130.50" arrivalLane="-886578341#0_0" arrivalPos="31.69" arrivalSpeed="11.77" duration="127.50" routeLength="1142.61" waitingTime="29.20" waitingCount="1" stopTime="0.00" timeLoss="54.31" rerouteNo="0" devices="tripinfo_493" vType="DEFAULT_VEHTYPE" speedFactor="1.06" vaporized=""/>
    <tripinfo id="193" depart="1.20" departLane="-13680947#2_0" departPos="5.10" departSpeed="0.00" departDelay="0.04" arrival="133.00" arrivalLane="-886580078#0_0" arrivalPos="39.91" arrivalSpeed="15.22" duration="131.80" routeLength="1604.18" waitingTime="0.00" waitingCount="0" stopTime="0.00" timeLoss="22.64" rerouteNo="0" devices="tripinfo_193" vType="DEFAULT_VEHTYPE" speedFactor="1.10" vaporized=""/>
    <tripinfo id="381" depart="2.30" departLane="13682730_0" departPos="5.10" departSpeed="0.00" departDelay="0.01" arrival="134.90" arrivalLane="-13681896#3_0" arrivalPos="2.27" arrivalSpeed="12.74" duration="132.60" routeLength="1504.52" waitingTime="0.00" waitingCount="0" stopTime="0.00" timeLoss="23.53" rerouteNo="0" devices="tripinfo_381" vType="DEFAULT_VEHTYPE" speedFactor="0.92" vaporized=""/>
    <tripinfo id="1548" depart="12.30" departLane="-886084921_0" departPos="5.10" departSpeed="0.00" departDelay="3.01" arrival="135.20" arrivalLane="990662002#2_0" arrivalPos="123.08" arrivalSpeed="17.40" duration="122.90" routeLength="813.62" waitingTime="34.40" waitingCount="2" stopTime="0.00" timeLoss="81.39" rerouteNo="0" devices="tripinfo_1548" vType="DEFAULT_VEHTYPE" speedFactor="1.06" vaporized=""/>
    <tripinfo id="1311" depart="8.30" departLane="-13680780#0_0" departPos="5.10" departSpeed="0.00" departDelay="0.43" arrival="135.30" arrivalLane="13678063#0_0" arrivalPos="12.24" arrivalSpeed="9.44" duration="127.00" routeLength="2000.94" waitingTime="0.00" waitingCount="0" stopTime="0.00" timeLoss="16.95" rerouteNo="0" devices="tripinfo_1311" vType="DEFAULT_VEHTYPE" speedFactor="1.00" vaporized=""/>