<?xml version="1.0" encoding="UTF-8"?>

<!-- generated on 2025-04-23 11:34:53 by Eclipse SUMO sumo Version 1.22.0
<sumoConfiguration xmlns:xsi="http://www.w3.org/2001/XMLSchema-instance" xsi:noNamespaceSchemaLocation="http://sumo.dlr.de/xsd/sumoConfiguration.xsd">

    <input>
        <net-file value=".\data\map.net.xml"/>
        <route-files value=".\data\flow2.rou.xml"/>
    </input>

    <output>
        <summary-output value=".\data\output/summary.xml"/>
        <tripinfo-output value=".\data\output/tripinfo.xml"/>
    </output>

    <time>
        <begin value="0"/>
        <end value="100"/>
        <step-length value="1.0"/>
    </time>

    <traci_server>
        <remote-port value="62123"/>
    </traci_server>

</sumoConfiguration>
-->

<tripinfos xmlns:xsi="http://www.w3.org/2001/XMLSchema-instance" xsi:noNamespaceSchemaLocation="http://sumo.dlr.de/xsd/tripinfo_file.xsd">
    <tripinfo id="703" depart="5.00" departLane="497742021#9_0" departPos="3.78" departSpeed="0.00" departDelay="0.78" arrival="41.00" arrivalLane="13681013#1_0" arrivalPos="34.00" arrivalSpeed="12.98" duration="36.00" routeLength="296.03" waitingTime="1.00" waitingCount="1" stopTime="0.00" timeLoss="18.93" rerouteNo="0" devices="tripinfo_703" vType="DEFAULT_VEHTYPE" speedFactor="0.95" vaporized=""/>
    <tripinfo id="865" depart="6.00" departLane="13681238#5_0" departPos="5.10" departSpeed="0.00" departDelay="0.81" arrival="50.00" arrivalLane="13681238#7_0" arrivalPos="196.75" arrivalSpeed="12.63" duration="44.00" routeLength="523.47" waitingTime="0.00" waitingCount="0" stopTime="0.00" timeLoss="4.31" rerouteNo="0" devices="tripinfo_865" vType="DEFAULT_VEHTYPE" speedFactor="0.96" vaporized=""/>
    <tripinfo id="1582" depart="10.00" departLane="-13681299#11_0" departPos="5.10" departSpeed="0.00" departDelay="0.51" arrival="50.00" arrivalLane="-191796249#5_0" arrivalPos="58.41" arrivalSpeed="12.53" duration="40.00" routeLength="452.82" waitingTime="0.00" waitingCount="0" stopTime="0.00" timeLoss="12.64" rerouteNo="0" devices="tripinfo_1582" vType="DEFAULT_VEHTYPE" speedFactor="0.96" vaporized=""/>
    <tripinfo id="232" depart="2.00" departLane="13679723#0_0" departPos="5.10" departSpeed="0.00" departDelay="0.61" arrival="53.00" arrivalLane="-13681151#19_0" arrivalPos="0.81" arrivalSpeed="12.88" duration="51.00" routeLength="563.55" waitingTime="0.00" waitingCount="0" stopTime="0.00" timeLoss="18.11" rerouteNo="0" devices="tripinfo_232" vType="DEFAULT_VEHTYPE" speedFactor="1.14" vaporized=""/>
    <tripinfo id="1653" depart="10.00" departLane="-180175600#8_0" departPos="5.10" departSpeed="0.00" departDelay="0.08" arrival="56.00" arrivalLane="13682261#3_0" arrivalPos="16.11" arrivalSpeed="12.07" duration="46.00" routeLength="467.62" waitingTime="0.00" waitingCount="0" stopTime="0.00" timeLoss="9.32" rerouteNo="0" devices="tripinfo_1653" vType="DEFAULT_VEHTYPE" speedFactor="0.95" vaporized=""/>
    <tripinfo id="337" depart="3.00" departLane="13681151#19_0" departPos="0.81" departSpeed="0.00" departDelay="0.98" arrival="65.00" arrivalLane="13681151#1_0" arrivalPos="58.65" arrivalSpeed="19.32" duration="62.00" routeLength="859.05" waitingTime="0.00" waitingCount="0" stopTime="0.00" timeLoss="16.46" rerouteNo="0" devices="tripinfo_337" vType="DEFAULT_VEHTYPE" speedFactor="0.89" vaporized=""/>
    <tripinfo id="1590" depart="10.00" departLane="129441444#8_0" departPos="5.10" departSpeed="0.00" departDelay="0.46" arrival="67.00" arrivalLane="13681397#3_0" arrivalPos="87.60" arrivalSpeed="14.20" duration="57.00" routeLength="880.84" waitingTime="0.00" waitingCount="0" stopTime="0.00" timeLoss="7.91" rerouteNo="0" devices="tripinfo_1590" vType="DEFAULT_VEHTYPE" speedFactor="1.08" vaporized=""/>
    <tripinfo id="1576" depart="10.00" departLane="202060852#6_0" departPos="1.66" departSpeed="0.00" departDelay="0.54" arrival="69.00" arrivalLane="-13682638#3_0" arrivalPos="119.47" arrivalSpeed="14.38" duration="59.00" routeLength="604.82" waitingTime="2.00" waitingCount="1" stopTime="0.00" timeLoss="15.67" rerouteNo="0" devices="tripinfo_1576" vType="DEFAULT_VEHTYPE" speedFactor="1.09" vaporized=""/>
    <tripinfo id="298" depart="2.00" departLane="13682051#1_0" departPos="5.10" departSpeed="0.00" departDelay="0.21" arrival="79.00" arrivalLane="-13682805#1_0" arrivalPos="120.10" arrivalSpeed="15.08" duration="77.00" routeLength="986.83" waitingTime="0.00" waitingCount="0" stopTime="0.00" timeLoss="11.07" rerouteNo="0" devices="tripinfo_298" vType="DEFAULT_VEHTYPE" speedFactor="1.10" vaporized=""/>
    <tripinfo id="723" depart="5.00" departLane="-13679879#2_0" departPos="5.10" departSpeed="0.00" departDelay="0.66" arrival="80.00" arrivalLane="13683097#5_0" arrivalPos="24.51" arrivalSpeed="13.04" duration="75.00" routeLength="772.47" waitingTime="0.00" waitingCount="0" stopTime="0.00" timeLoss="15.08" rerouteNo="0" devices="tripinfo_723" vType="DEFAULT_VEHTYPE" speedFactor="0.99" vaporized=""/>
    <tripinfo id="283" depart="2.00" departLane="-13680663#20_0" departPos="5.10" departSpeed="0.00" departDelay="0.30" arrival="81.00" arrivalLane="895011683#5_2" arrivalPos="42.58" arrivalSpeed="8.85" duration="79.00" routeLength="926.29" waitingTime="0.00" waitingCount="0" stopTime="0.00" timeLoss="19.18" rerouteNo="0" devices="tripinfo_283" vType="DEFAULT_VEHTYPE" speedFactor="0.95" vaporized=""/>
    <tripinfo id="478" depart="3.00" departLane="-1223122984#0_0" departPos="0.75" departSpeed="0.00" departDelay="0.13" arrival="85.00" arrivalLane="13680342#5_0" arrivalPos="32.60" arrivalSpeed="13.60" duration="82.00" routeLength="569.82" waitingTime="41.00" waitingCount="1" stopTime="0.00" timeLoss="50.71" rerouteNo="0" devices="tripinfo_478" vType="DEFAULT_VEHTYPE" speedFactor="1.02" vaporized=""/>
    <tripinfo id="590" depart="4.00" departLane="207762599#0_0" departPos="5.10" departSpeed="0.00" departDelay="0.46" arrival="85.00" arrivalLane="192952205#1_0" arrivalPos="24.31" arrivalSpeed="11.82" duration="81.00" routeLength="701.35" waitingTime="17.00" waitingCount="1" stopTime="0.00" timeLoss="45.22" rerouteNo="0" devices="tripinfo_590" vType="DEFAULT_VEHTYPE" speedFactor="1.12" vaporized=""/>
    <tripinfo id="1503" depart="10.00" departLane="-13682886_0" departPos="5.10" departSpeed="0.00" departDelay="0.98" arrival="85.00" arrivalLane="-202055014#10_0" arrivalPos="64.29" arrivalSpeed="19.66" duration="75.00" routeLength="1224.03" waitingTime="0.00" waitingCount="0" stopTime="0.00" timeLoss="9.89" rerouteNo="0" devices="tripinfo_1503" vType="DEFAULT_VEHTYPE" speedFactor="0.94" vaporized=""/>
    <tripinfo id="141" depart="1.00" departLane="13681297_0" departPos="5.10" departSpeed="0.00" departDelay="0.15" arrival="87.00" arrivalLane="-13682509_0" arrivalPos="136.95" arrivalSpeed="14.30" duration="86.00" routeLength="1089.34" waitingTime="0.00" waitingCount="0" stopTime="0.00" timeLoss="13.22" rerouteNo="0" devices="tripinfo_141" vType="DEFAULT_VEHTYPE" speedFactor="1.11" vaporized=""/>
    <tripinfo id="714" depart="5.00" departLane="-13682386#1_0" departPos="5.10" departSpeed="0.00" departDelay="0.72" arrival="87.00" arrivalLane="-1223122990#0_0" arrivalPos="15.93" arrivalSpeed="9.51" duration="82.00" routeLength="741.13" waitingTime="13.00" waitingCount="2" stopTime="0.00" timeLoss="47.83" rerouteNo="0" devices="tripinfo_714" vType="DEFAULT_VEHTYPE" speedFactor="1.00" vaporized=""/>
    <tripinfo id="139" depart="1.00" departLane="-13682478#3_0" departPos="5.10" departSpeed="0.00" departDelay="0.17" arrival="92.00" arrivalLane="13681098#2_0" arrivalPos="2.57" arrivalSpeed="13.72" duration="91.00" routeLength="1067.67" waitingTime="0.00" waitingCount="0" stopTime="0.00" timeLoss="11.92" rerouteNo="0" devices="tripinfo_139" vType="DEFAULT_VEHTYPE" speedFactor="1.00" vaporized=""/>
    <tripinfo id="379" depart="3.00" departLane="-13681524#60_0" departPos="0.20" departSpeed="0.00" departDelay="0.73" arrival="92.00" arrivalLane="-292119473#7_0" arrivalPos="11.32" arrivalSpeed="15.15" duration="89.00" routeLength="1207.80" waitingTime="0.00" waitingCount="0" stopTime="0.00" timeLoss="9.74" rerouteNo="0" devices="tripinfo_379" vType="DEFAULT_VEHTYPE" speedFactor="1.10" vaporized=""/>
    <tripinfo id="646" depart="4.00" departLane="895011686#6_0" departPos="5.10" departSpeed="0.00" departDelay="0.12" arrival="93.00" arrivalLane="13682089#1_0" arrivalPos="141.10" arrivalSpeed="13.50" duration="89.00" routeLength="1076.12" waitingTime="0.00" waitingCount="0" stopTime="0.00" timeLoss="13.98" rerouteNo="0" devices="tripinfo_646" vType="DEFAULT_VEHTYPE" speedFactor="0.98" vaporized=""/>
    <tripinfo id="808" depart="5.00" departLane="1291555117#4_0" departPos="5.10" departSpeed="0.00" departDelay="0.15" arrival="93.00" arrivalLane="13681299#8_1" arrivalPos="59.93" arrivalSpeed="4.80" duration="88.00" routeLength="1112.13" waitingTime="1.00" waitingCount="1" stopTime="0.00" timeLoss="24.54" rerouteNo="0" devices="tripinfo_808" vType="DEFAULT_VEHTYPE" speedFactor="1.10" vaporized=""/>
    <tripinfo id="1472" depart="9.00" departLane="-13681071#8_0" departPos="5.10" departSpeed="0.00" departDelay="0.17" arrival="94.00" arrivalLane="-13681393#1_0" arrivalPos="210.32" arrivalSpeed="14.15" duration="85.00" routeLength="1163.97" waitingTime="0.00" waitingCount="0" stopTime="0.00" timeLoss="19.94" rerouteNo="0" devices="tripinfo_1472" vType="DEFAULT_VEHTYPE" speedFactor="1.07" vaporized=""/>
    <tripinfo id="1258" depart="9.00" departLane="-1159061926#11_0" departPos="5.10" departSpeed="0.00" departDelay="1.45" arrival="95.00" arrivalLane="13683014#6_0" arrivalPos="2.09" arrivalSpeed="12.27" duration="86.00" routeLength="1063.37" waitingTime="0.00" waitingCount="0" stopTime="0.00" timeLoss="22.22" rerouteNo="0" devices="tripinfo_1258" vType="DEFAULT_VEHTYPE" speedFactor="0.97" vaporized=""/>
    <tripinfo id="444" depart="3.00" departLane="-202055286#7_0" departPos="5.10" departSpeed="0.00" departDelay="0.34" arrival="97.00" arrivalLane="13680903#5_0" arrivalPos="12.75" arrivalSpeed="18.81" duration="94.00" routeLength="1264.01" waitingTime="4.00" waitingCount="1" stopTime="0.00" timeLoss="26.72" rerouteNo="0" devices="tripinfo_444" vType="DEFAULT_VEHTYPE" speedFactor="0.89" vaporized=""/>
    <tripinfo id="769" depart="5.00" departLane="-13680482_0" departPos="5.10" departSpeed="0.00" departDelay="0.39" arrival="97.00" arrivalLane="13681886#1_0" arrivalPos="289.32" arrivalSpeed="14.28" duration="92.00" routeLength="1381.42" waitingTime="0.00" waitingCount="0" stopTime="0.00" timeLoss="19.11" rerouteNo="0" devices="tripinfo_769" vType="DEFAULT_VEHTYPE" speedFactor="1.05" vaporized=""/>
    <tripinfo id="1319" depart="8.00" departLane="-13680185#1_0" departPos="5.10" departSpeed="0.00" departDelay="0.09" arrival="97.00" arrivalLane="-13682494#1_0" arrivalPos="32.72" arrivalSpeed="14.33" duration="89.00" routeLength="584.08" waitingTime="34.00" waitingCount="1" stopTime="0.00" timeLoss="46.59" rerouteNo="0" devices="tripinfo_1319" vType="DEFAULT_VEHTYPE" speedFactor="1.05" vaporized=""/>
    <tripinfo id="1548" depart="13.00" departLane="-886084921_0" departPos="5.10" departSpeed="0.00" departDelay="3.71" arrival="97.00" arrivalLane="990662002#2_0" arrivalPos="123.08" arrivalSpeed="22.55" duration="84.00" routeLength="813.62" waitingTime="15.00" waitingCount="2" stopTime="0.00" timeLoss="42.57" rerouteNo="0" devices="tripinfo_1548" vType="DEFAULT_VEHTYPE" speedFactor="1.06" vaporized=""/>
    <tripinfo id="573" depart="4.00" departLane="13683014#4_0" departPos="0.20" departSpeed="0.00" departDelay="0.56" arrival="98.00" arrivalLane="13680663#1_0" arrivalPos="1.25" arrivalSpeed="14.14" duration="94.00" routeLength="303.20" waitingTime="54.00" waitingCount="2" stopTime="0.00" timeLoss="73.41" rerouteNo="0" devices="tripinfo_573" vType="DEFAULT_VEHTYPE" speedFactor="1.07" vaporized=""/>
    <tripinfo id="120" depart="1.00" departLane="-557585569#2_0" departPos="5.10" departSpeed="0.00" departDelay="0.28" arrival="101.00" arrivalLane="13680849#17_0" arrivalPos="162.67" arrivalSpeed="22.98" duration="100.00" routeLength="1306.31" waitingTime="0.00" waitingCount="0" stopTime="0.00" timeLoss="25.98" rerouteNo="0" devices="tripinfo_120" vType="DEFAULT_VEHTYPE" speedFactor="1.07" vaporized=""/>
    <tripinfo id="482" depart="5.00" departLane="-13680675#3_0" departPos="5.10" departSpeed="0.00" departDelay="2.11" arrival="105.00" arrivalLane="-13682259#5_0" arrivalPos="43.47" arrivalSpeed="12.96" duration="100.00" routeLength="909.11" waitingTime="26.00" waitingCount="1" stopTime="0.00" timeLoss="39.49" rerouteNo="0" devices="tripinfo_482" vType="DEFAULT_VEHTYPE" speedFactor="0.99" vaporized=""/>
    <tripinfo id="672" depart="7.00" departLane="209364526_0" departPos="5.10" departSpeed="0.00" departDelay="2.97" arrival="106.00" arrivalLane="-292121802#23_0" arrivalPos="95.26" arrivalSpeed="21.95" duration="99.00" routeLength="1114.83" waitingTime="20.00" waitingCount="1" stopTime="0.00" timeLoss="46.28" rerouteNo="0" devices="tripinfo_672" vType="DEFAULT_VEHTYPE" speedFactor="1.00" vaporized=""/>
    <tripinfo id="750" depart="5.00" departLane="13681726#3_0" departPos="5.10" departSpeed="0.00" departDelay="0.50" arrival="108.00" arrivalLane="895007899#16_1" arrivalPos="68.60" arrivalSpeed="20.80" duration="103.00" routeLength="1184.85" waitingTime="14.00" waitingCount="1" stopTime="0.00" timeLoss="41.51" rerouteNo="0" devices="tripinfo_750" vType="DEFAULT_VEHTYPE" speedFactor="1.10" vaporized=""/>
    <tripinfo id="1114" depart="7.00" departLane="13680381#3_0" departPos="5.10" departSpeed="0.00" departDelay="0.32" arrival="110.00" arrivalLane="-598082628#3_0" arrivalPos="36.33" arrivalSpeed="11.21" duration="103.00" routeLength="1130.52" waitingTime="0.00" waitingCount="0" stopTime="0.00" timeLoss="18.12" rerouteNo="0" devices="tripinfo_1114" vType="DEFAULT_VEHTYPE" speedFactor="0.99" vaporized=""/>
    <tripinfo id="1546" depart="10.00" departLane="192952203#5_0" departPos="5.10" departSpeed="0.00" departDelay="0.72" arrival="110.00" arrivalLane="-13681030#1_0" arrivalPos="71.63" arrivalSpeed="15.50" duration="100.00" routeLength="1612.66" waitingTime="0.00" waitingCount="0" stopTime="0.00" timeLoss="19.17" rerouteNo="0" devices="tripinfo_1546" vType="DEFAULT_VEHTYPE" speedFactor="1.12" vaporized=""/>
    <tripinfo id="494" depart="3.00" departLane="13682466#1_0" departPos="5.10" departSpeed="0.00" departDelay="0.04" arrival="111.00" arrivalLane="-13681344#1_0" arrivalPos="351.89" arrivalSpeed="14.21" duration="108.00" routeLength="1279.66" waitingTime="2.00" waitingCount="1" stopTime="0.00" timeLoss="21.26" rerouteNo="0" devices="tripinfo_494" vType="DEFAULT_VEHTYPE" speedFactor="1.09" vaporized=""/>
    <tripinfo id="741" depart="5.00" departLane="-13680423#17_0" departPos="5.10" departSpeed="0.00" departDelay="0.55" arrival="114.00" arrivalLane="13681576#29_0" arrivalPos="99.24" arrivalSpeed="23.02" duration="109.00" routeLength="986.67" waitingTime="41.00" waitingCount="1" stopTime="0.00" timeLoss="67.61" rerouteNo="0" devices="tripinfo_741" vType="DEFAULT_VEHTYPE" speedFactor="1.03" vaporized=""/>
    <tripinfo id="803" depart="5.00" departLane="13680436#1_0" departPos="5.10" departSpeed="0.00" departDelay="0.18" arrival="114.00" arrivalLane="203381197#5_0" arrivalPos="68.15" arrivalSpeed="13.22" duration="109.00" routeLength="1344.41" waitingTime="0.00" waitingCount="0" stopTime="0.00" timeLoss="24.43" rerouteNo="0" devices="tripinfo_803" vType="DEFAULT_VEHTYPE" speedFactor="0.99" vaporized=""/>
    <tripinfo id="812" depart="5.00" departLane="-13680342#0_0" departPos="5.10" departSpeed="0.00" departDelay="0.13" arrival="114.00" arrivalLane="-13679723#1_0" arrivalPos="65.49" arrivalSpeed="14.32" duration="109.00" routeLength="1173.00" waitingTime="16.00" waitingCount="2" stopTime="0.00" timeLoss="47.38" rerouteNo="0" devices="tripinfo_812" vType="DEFAULT_VEHTYPE" speedFactor="1.04" vaporized=""/>
    <tripinfo id="1456" depart="9.00" departLane="13680436#1_0" departPos="5.10" departSpeed="0.00" departDelay="0.26" arrival="114.00" arrivalLane="13680617#8_0" arrivalPos="19.89" arrivalSpeed="9.63" duration="105.00" routeLength="1198.01" waitingTime="8.00" waitingCount="1" stopTime="0.00" timeLoss="39.56" rerouteNo="0" devices="tripinfo_1456" vType="DEFAULT_VEHTYPE" speedFactor="1.02" vaporized=""/>
    <tripinfo id="1289" depart="8.00" departLane="-13683176#8_0" departPos="5.10" departSpeed="0.00" departDelay="0.27" arrival="115.00" arrivalLane="299709774#0_1" arrivalPos="21.14" arrivalSpeed="15.48" duration="107.00" routeLength="1335.26" waitingTime="0.00" waitingCount="0" stopTime="0.00" timeLoss="17.02" rerouteNo="0" devices="tripinfo_1289" vType="DEFAULT_VEHTYPE" speedFactor="1.07" vaporized=""/>
    <tripinfo id="1532" depart="10.00" departLane="13681576#24_0" departPos="5.10" departSpeed="0.00" departDelay="0.81" arrival="115.00" arrivalLane="-13680528_0" arrivalPos="435.84" arrivalSpeed="14.89" duration="105.00" routeLength="1512.24" waitingTime="0.00" waitingCount="0" stopTime="0.00" timeLoss="18.01" rerouteNo="0" devices="tripinfo_1532" vType="DEFAULT_VEHTYPE" speedFactor="1.14" vaporized=""/>
    <tripinfo id="561" depart="5.00" departLane="202055015#0_0" departPos="5.10" departSpeed="0.00" departDelay="1.63" arrival="119.00" arrivalLane="13681151#4_0" arrivalPos="12.69" arrivalSpeed="9.57" duration="114.00" routeLength="1684.31" waitingTime="9.00" waitingCount="1" stopTime="0.00" timeLoss="39.16" rerouteNo="0" devices="tripinfo_561" vType="DEFAULT_VEHTYPE" speedFactor="1.13" vaporized=""/>
    <tripinfo id="1281" depart="8.00" departLane="13682083#5_0" departPos="5.10" departSpeed="0.00" departDelay="0.31" arrival="119.00" arrivalLane="-1158072208#2_0" arrivalPos="25.68" arrivalSpeed="12.74" duration="111.00" routeLength="1311.86" waitingTime="37.00" waitingCount="1" stopTime="0.00" timeLoss="63.93" rerouteNo="0" devices="tripinfo_1281" vType="DEFAULT_VEHTYPE" speedFactor="1.13" vaporized=""/>
    <tripinfo id="566" depart="4.00" departLane="-202055016#2_0" departPos="5.10" departSpeed="0.00" departDelay="0.60" arrival="120.00" arrivalLane="-119655169#1_0" arrivalPos="27.14" arrivalSpeed="14.58" duration="116.00" routeLength="993.45" waitingTime="28.00" waitingCount="2" stopTime="0.00" timeLoss="55.97" rerouteNo="0" devices="tripinfo_566" vType="DEFAULT_VEHTYPE" speedFactor="1.13" vaporized=""/>
    <tripinfo id="468" depart="5.00" departLane="13678720#1_0" departPos="5.10" departSpeed="0.00" departDelay="2.19" arrival="121.00" arrivalLane="589357403#4_0" arrivalPos="69.65" arrivalSpeed="15.92" duration="116.00" routeLength="1457.23" waitingTime="0.00" waitingCount="0" stopTime="0.00" timeLoss="28.53" rerouteNo="0" devices="tripinfo_468" vType="DEFAULT_VEHTYPE" speedFactor="1.21" vaporized=""/>
    <tripinfo id="163" depart="1.00" departLane="-202055012#2_0" departPos="0.56" departSpeed="0.00" departDelay="0.02" arrival="125.00" arrivalLane="809428282#1_0" arrivalPos="56.78" arrivalSpeed="13.22" duration="124.00" routeLength="1398.23" waitingTime="0.00" waitingCount="0" stopTime="0.00" timeLoss="28.41" rerouteNo="0" devices="tripinfo_163" vType="DEFAULT_VEHTYPE" speedFactor="0.99" vaporized=""/>
    <tripinfo id="439" depart="3.00" departLane="-13681103#1_0" departPos="5.10" departSpeed="0.00" departDelay="0.37" arrival="126.00" arrivalLane="1223122991#0_0" arrivalPos="24.09" arrivalSpeed="10.92" duration="123.00" routeLength="1725.66" waitingTime="0.00" waitingCount="0" stopTime="0.00" timeLoss="25.65" rerouteNo="0" devices="tripinfo_439" vType="DEFAULT_VEHTYPE" speedFactor="1.06" vaporized=""/>
    <tripinfo id="849" depart="6.00" departLane="1223122970_0" departPos="5.10" departSpeed="0.00" departDelay="0.91" arrival="126.00" arrivalLane="1223122976#0_1" arrivalPos="77.44" arrivalSpeed="11.93" duration="120.00" routeLength="879.78" waitingTime="64.00" waitingCount="1" stopTime="0.00" timeLoss="81.75" rerouteNo="0" devices="tripinfo_849" vType="DEFAULT_VEHTYPE" speedFactor="1.18" vaporized=""/>
    <tripinfo id="665" depart="4.00" departLane="192952205#2_0" departPos="5.10" departSpeed="0.00" departDelay="0.01" arrival="127.00" arrivalLane="-13681444#3_0" arrivalPos="264.17" arrivalSpeed="11.90" duration="123.00" routeLength="1581.93" waitingTime="0.00" waitingCount="0" stopTime="0.00" timeLoss="18.97" rerouteNo="0" devices="tripinfo_665" vType="DEFAULT_VEHTYPE" speedFactor="0.88" vaporized=""/>
    <tripinfo id="1330" depart="8.00" departLane="13681803#15_0" departPos="5.10" departSpeed="0.00" departDelay="0.02" arrival="128.00" arrivalLane="-13680233#1_0" arrivalPos="90.69" arrivalSpeed="12.85" duration="120.00" routeLength="1420.35" waitingTime="17.00" waitingCount="1" stopTime="0.00" timeLoss="41.16" rerouteNo="0" devices="tripinfo_1330" vType="DEFAULT_VEHTYPE" speedFactor="1.02" vaporized=""/>
    <tripinfo id="474" depart="3.00" departLane="895011686#24_0" departPos="5.10" departSpeed="0.00" departDelay="0.16" arrival="129.00" arrivalLane="292119473#0_0" arrivalPos="11.91" arrivalSpeed="8.00" duration="126.00" routeLength="1545.16" waitingTime="0.00" waitingCount="0" stopTime="0.00" timeLoss="17.87" rerouteNo="0" devices="tripinfo_474" vType="DEFAULT_VEHTYPE" speedFactor="1.04" vaporized=""/>
    <tripinfo id="122" depart="1.00" departLane="-13681803#1_0" departPos="5.10" departSpeed="0.00" departDelay="0.27" arrival="130.00" arrivalLane="13682261#6_0" arrivalPos="18.96" arrivalSpeed="15.31" duration="129.00" routeLength="1421.47" waitingTime="29.00" waitingCount="2" stopTime="0.00" timeLoss="64.98" rerouteNo="0" devices="tripinfo_122" vType="DEFAULT_VEHTYPE" speedFactor="1.10" vaporized=""/>
    <tripinfo id="1070" depart="10.00" departLane="-378569209#0_0" departPos="1.83" departSpeed="0.00" departDelay="3.58" arrival="130.00" arrivalLane="13680636#3_0" arrivalPos="0.20" arrivalSpeed="11.76" duration="120.00" routeLength="1569.06" waitingTime="3.00" waitingCount="2" stopTime="0.00" timeLoss="39.34" rerouteNo="0" devices="tripinfo_1070" vType="DEFAULT_VEHTYPE" speedFactor="0.94" vaporized=""/>
    <tripinfo id="1180" depart="8.00" departLane="292071091#1_0" departPos="5.10" departSpeed="0.00" departDelay="0.92" arrival="130.00" arrivalLane="13681524#11_0" arrivalPos="23.48" arrivalSpeed="12.59" duration="122.00" routeLength="1039.33" waitingTime="30.00" waitingCount="1" stopTime="0.00" timeLoss="54.14" rerouteNo="0" devices="tripinfo_1180" vType="DEFAULT_VEHTYPE" speedFactor="1.15" vaporized=""/>
    <tripinfo id="1481" depart="10.00" departLane="886582032#1_0" departPos="5.10" departSpeed="0.00" departDelay="1.11" arrival="131.00" arrivalLane="886582021#0_0" arrivalPos="28.17" arrivalSpeed="11.26" duration="121.00" routeLength="1279.56" waitingTime="0.00" waitingCount="0" stopTime="0.00" timeLoss="18.66" rerouteNo="0" devices="tripinfo_1481" vType="DEFAULT_VEHTYPE" speedFactor="0.92" vaporized=""/>
    <tripinfo id="26" depart="1.00" departLane="-13682464#0_0" departPos="5.10" departSpeed="0.00" departDelay="0.84" arrival="138.00" arrivalLane="886084905#12_0" arrivalPos="13.00" arrivalSpeed="12.29" duration="137.00" routeLength="1630.35" waitingTime="0.00" waitingCount="0" stopTime="0.00" timeLoss="23.43" rerouteNo="0" devices="tripinfo_26" vType="DEFAULT_VEHTYPE" speedFactor="0.92" vaporized=""/>
    <tripinfo id="493" depart="3.00" departLane="886580080#0_0" departPos="5.10" departSpeed="0.00" departDelay="0.04" arrival="138.00" arrivalLane="-886578341#0_0" arrivalPos="31.69" arrivalSpeed="10.42" duration="135.00" routeLength="1142.61" waitingTime="34.00" waitingCount="1" stopTime="0.00" timeLoss="61.78" rerouteNo="0" devices="tripinfo_493" vType="DEFAULT_VEHTYPE" speedFactor="1.06" vaporized=""/>
    <tripinfo id="399" depart="3.00" departLane="1298127589#0_0" departPos="5.10" departSpeed="0.00" departDelay="0.61" arrival="140.00" arrivalLane="202055018#9_0" arrivalPos="15.80" arrivalSpeed="21.09" duration="137.00" routeLength="1432.87" waitingTime="44.00" waitingCount="3" stopTime="0.00" timeLoss="68.87" rerouteNo="0" devices="tripinfo_399" vType="DEFAULT_VEHTYPE" speedFactor="0.98" vaporized=""/>
    <tripinfo id="660" depart="4.00" departLane="209364526_0" departPos="5.10" departSpeed="0.00" departDelay="0.04" arrival="140.00" arrivalLane="315559849#0_0" arrivalPos="13.06" arrivalSpeed="3.08" duration="136.00" routeLength="1867.81" waitingTime="0.00" waitingCount="0" stopTime="0.00" timeLoss="16.77" rerouteNo="0" devices="tripinfo_660" vType="DEFAULT_VEHTYPE" speedFactor="0.87" vaporized=""/>
    <tripinfo id="670" depart="5.00" departLane="13679091#0_0" departPos="5.10" departSpeed="0.00" departDelay="0.98" arrival="140.00" arrivalLane="-191786472#0_0" arrivalPos="5.60" arrivalSpeed="8.92" duration="135.00" routeLength="1170.64" waitingTime="12.00" waitingCount="1" stopTime="0.00" timeLoss="67.62" rerouteNo="0" devices="tripinfo_670" vType="DEFAULT_VEHTYPE" speedFactor="1.19" vaporized=""/>
    <tripinfo id="764" depart="5.00" departLane="-897245048#0_0" departPos="5.10" departSpeed="0.00" departDelay="0.42" arrival="140.00" arrivalLane="990656282#1_0" arrivalPos="39.96" arrivalSpeed="12.27" duration="135.00" routeLength="1052.55" waitingTime="21.00" waitingCount="3" stopTime="0.00" timeLoss="53.25" rerouteNo="0" devices="tripinfo_764" vType="DEFAULT_VEHTYPE" speedFactor="0.90" vaporized=""/>
    <tripinfo id="949" depart="6.00" departLane="13681524#66_0" departPos="5.10" departSpeed="0.00" departDelay="0.31" arrival="140.00" arrivalLane="-13682089#0_0" arrivalPos="34.25" arrivalSpeed="12.17" duration="134.00" routeLength="831.07" waitingTime="55.00" waitingCount="2" stopTime="0.00" timeLoss="80.98" rerouteNo="0" devices="tripinfo_949" vType="DEFAULT_VEHTYPE" speedFactor="0.90" vaporized=""/>
    <tripinfo id="193" depart="2.00" departLane="-13680947#2_0" departPos="5.10" departSpeed="0.00" departDelay="0.84" arrival="141.00" arrivalLane="-886580078#0_0" arrivalPos="39.91" arrivalSpeed="14.36" duration="139.00" routeLength="1604.18" waitingTime="6.00" waitingCount="1" stopTime="0.00" timeLoss="30.16" rerouteNo="0" devices="tripinfo_193" vType="DEFAULT_VEHTYPE" speedFactor="1.10" vaporized=""/>
    <tripinfo id="240" depart="2.00" departLane="-292121795#5_0" departPos="5.10" departSpeed="0.00" departDelay="0.56" arrival="141.00" arrivalLane="-119655169#0_0" arrivalPos="16.80" arrivalSpeed="14.64" duration="139.00" routeLength="2410.87" waitingTime="0.00" waitingCount="0" stopTime="0.00" timeLoss="25.65" rerouteNo="0" devices="tripinfo_240" vType="DEFAULT_VEHTYPE" speedFactor="1.13" vaporized=""/>
    <tripinfo id="381" depart="3.00" departLane="13682730_0" departPos="5.10" departSpeed="0.00" departDelay="0.71" arrival="141.00" arrivalLane="-13681896#3_0" arrivalPos="2.27" arrivalSpeed="12.75" duration="138.00" routeLength="1504.52" waitingTime="0.00" waitingCount="0" stopTime="0.00" timeLoss="28.25" rerouteNo="0" devices="tripinfo_381" vType="DEFAULT_VEHTYPE" speedFactor="0.92" vaporized=""/>
    <tripinfo id="1530" depart="14.00" departLane="-13682051#1_0" departPos="5.10" departSpeed="0.00" departDelay="4.82" arrival="145.00" arrivalLane="-13682619_0" arrivalPos="336.26" arrivalSpeed="13.74" duration="131.00" routeLength="1410.52" waitingTime="9.00" waitingCount="1" stopTime="0.00" timeLoss="31.26" rerouteNo="0" devices="tripinfo_1530" vType="DEFAULT_VEHTYPE" speedFactor="1.06" vaporized=""/>
    <tripinfo id="285" depart="2.00" departLane="13682122#3_0" departPos="5.10" departSpeed="0.00" departDelay="0.29" arrival="146.00" arrivalLane="1127409890_0" arrivalPos="0.94" arrivalSpeed="9.77" duration="144.00" routeLength="1320.34" waitingTime="0.00" waitingCount="0" stopTime="0.00" timeLoss="21.06" rerouteNo="0" devices="tripinfo_285" vType="DEFAULT_VEHTYPE" speedFactor="0.76" vaporized=""/>
    <tripinfo id="559" depart="4.00" departLane="13680570#7_0" departPos="5.10" departSpeed="0.00" departDelay="0.65" arrival="147.00" arrivalLane="192952205#8_1" arrivalPos="4.00" arrivalSpeed="18.31" duration="143.00" routeLength="1929.02" waitingTime="6.00" waitingCount="1" stopTime="0.00" timeLoss="25.54" rerouteNo="0" devices="tripinfo_559" vType="DEFAULT_VEHTYPE" speedFactor="0.84" vaporized=""/>
    <tripinfo id="960" depart="8.00" departLane="192952203#6_0" departPos="5.10" departSpeed="0.00" departDelay="2.24" arrival="148.00" arrivalLane="1223122958_0" arrivalPos="54.79" arrivalSpeed="20.66" duration="140.00" routeLength="2568.93" waitingTime="2.00" waitingCount="1" stopTime="0.00" timeLoss="25.33" rerouteNo="0" devices="tripinfo_960" vType="DEFAULT_VEHTYPE" speedFactor="1.08" vaporized=""/>
    <tripinfo id="946" depart="6.00" departLane="13682480#8_0" departPos="5.10" departSpeed="0.00" departDelay="0.32" arrival="149.00" arrivalLane="13681102#10_0" arrivalPos="25.75" arrivalSpeed="12.15" duration="143.00" routeLength="2277.81" waitingTime="0.00" waitingCount="0" stopTime="0.00" timeLoss="18.93" rerouteNo="0" devices="tripinfo_946" vType="DEFAULT_VEHTYPE" speedFactor="0.92" vaporized=""/>
    <tripinfo id="1463" depart="9.00" departLane="-13681687#0_0" departPos="5.10" departSpeed="0.00" departDelay="0.22" arrival="149.00" arrivalLane="-13681086#1_0" arrivalPos="163.32" arrivalSpeed="13.14" duration="140.00" routeLength="1201.96" waitingTime="46.00" waitingCount="1" stopTime="0.00" timeLoss="75.85" rerouteNo="0" devices="tripinfo_1463" vType="DEFAULT_VEHTYPE" speedFactor="1.02" vaporized=""/>
    <tripinfo id="1269" depart="8.00" departLane="13683150#2_0" departPos="1.11" departSpeed="0.00" departDelay="0.39" arrival="150.00" arrivalLane="1223122984#6_0" arrivalPos="0.20" arrivalSpeed="17.26" duration="142.00" routeLength="874.96" waitingTime="48.00" waitingCount="2" stopTime="0.00" timeLoss="66.41" rerouteNo="0" devices="tripinfo_1269" vType="DEFAULT_VEHTYPE" speedFactor="0.80" vaporized=""/>