<?xml version="1.0" encoding="UTF-8"?>

<!-- generated on 2025-04-20 21:25:54 by Eclipse SUMO GUI Version 1.22.0
<sumoConfiguration xmlns:xsi="http://www.w3.org/2001/XMLSchema-instance" xsi:noNamespaceSchemaLocation="http://sumo.dlr.de/xsd/sumoConfiguration.xsd">

    <input>
        <net-file value="/Users/chandler/LocalDesk/CityFlow/Untitled/TrafficSignalManagement/data/map.net.xml"/>
        <route-files value="/Users/chandler/LocalDesk/CityFlow/Untitled/TrafficSignalManagement/data/routes.rou.xml"/>
    </input>

    <output>
        <fcd-output value="/Users/chandler/LocalDesk/CityFlow/Untitled/TrafficSignalManagement/data/output/fcd.xml"/>
        <summary-output value="/Users/chandler/LocalDesk/CityFlow/Untitled/TrafficSignalManagement/data/output/summary.xml"/>
        <tripinfo-output value="/Users/chandler/LocalDesk/CityFlow/Untitled/TrafficSignalManagement/data/output/tripinfo.xml"/>
    </output>

    <time>
        <begin value="0"/>
        <end value="7200"/>
    </time>

</sumoConfiguration>
-->

<tripinfos xmlns:xsi="http://www.w3.org/2001/XMLSchema-instance" xsi:noNamespaceSchemaLocation="http://sumo.dlr.de/xsd/tripinfo_file.xsd">
    <tripinfo id="51" depart="51.00" departLane="13681803#19_0" departPos="5.10" departSpeed="0.00" departDelay="0.00" arrival="143.00" arrivalLane="13680342#8_0" arrivalPos="44.53" arrivalSpeed="15.03" duration="92.00" routeLength="1766.49" waitingTime="0.00" waitingCount="0" stopTime="0.00" timeLoss="17.12" rerouteNo="0" devices="tripinfo_51 fcd_51" vType="DEFAULT_VEHTYPE" speedFactor="1.17" vaporized=""/>
    <tripinfo id="26" depart="26.00" departLane="-13682464#0_0" departPos="5.10" departSpeed="0.00" departDelay="0.00" arrival="162.00" arrivalLane="886084905#12_0" arrivalPos="13.00" arrivalSpeed="11.96" duration="136.00" routeLength="1630.35" waitingTime="0.00" waitingCount="0" stopTime="0.00" timeLoss="21.91" rerouteNo="0" devices="tripinfo_26 fcd_26" vType="DEFAULT_VEHTYPE" speedFactor="0.92" vaporized=""/>
    <tripinfo id="13" depart="13.00" departLane="-13680556_0" departPos="5.10" departSpeed="0.00" departDelay="0.00" arrival="175.00" arrivalLane="-13680636#4_0" arrivalPos="37.51" arrivalSpeed="13.56" duration="162.00" routeLength="1549.99" waitingTime="40.00" waitingCount="2" stopTime="0.00" timeLoss="84.63" rerouteNo="0" devices="tripinfo_13 fcd_13" vType="DEFAULT_VEHTYPE" speedFactor="1.12" vaporized=""/>
    <tripinfo id="90" depart="90.00" departLane="13682386#13_0" departPos="5.10" departSpeed="0.00" departDelay="0.00" arrival="198.00" arrivalLane="13681803#13_0" arrivalPos="55.31" arrivalSpeed="21.93" duration="108.00" routeLength="1541.83" waitingTime="0.00" waitingCount="0" stopTime="0.00" timeLoss="20.16" rerouteNo="0" devices="tripinfo_90 fcd_90" vType="DEFAULT_VEHTYPE" speedFactor="1.02" vaporized=""/>
    <tripinfo id="122" depart="127.00" departLane="-13681803#1_0" departPos="5.10" departSpeed="0.00" departDelay="5.00" arrival="212.00" arrivalLane="13682261#6_0" arrivalPos="18.96" arrivalSpeed="14.94" duration="85.00" routeLength="1421.47" waitingTime="0.00" waitingCount="0" stopTime="0.00" timeLoss="21.31" rerouteNo="0" devices="tripinfo_122 fcd_122" vType="DEFAULT_VEHTYPE" speedFactor="1.10" vaporized=""/>
    <tripinfo id="3" depart="3.00" departLane="353261802_0" departPos="5.10" departSpeed="0.00" departDelay="0.00" arrival="213.00" arrivalLane="-13680550#2_0" arrivalPos="44.25" arrivalSpeed="13.42" duration="210.00" routeLength="2653.53" waitingTime="37.00" waitingCount="2" stopTime="0.00" timeLoss="79.93" rerouteNo="0" devices="tripinfo_3 fcd_3" vType="DEFAULT_VEHTYPE" speedFactor="1.08" vaporized=""/>
    <tripinfo id="120" depart="120.00" departLane="-557585569#2_0" departPos="5.10" departSpeed="0.00" departDelay="0.00" arrival="217.00" arrivalLane="13680849#17_0" arrivalPos="162.67" arrivalSpeed="23.31" duration="97.00" routeLength="1306.31" waitingTime="0.00" waitingCount="0" stopTime="0.00" timeLoss="22.83" rerouteNo="0" devices="tripinfo_120 fcd_120" vType="DEFAULT_VEHTYPE" speedFactor="1.07" vaporized=""/>
    <tripinfo id="52" depart="52.00" departLane="-13682448#5_0" departPos="5.10" departSpeed="0.00" departDelay="0.00" arrival="225.00" arrivalLane="13681424#4_0" arrivalPos="120.75" arrivalSpeed="13.91" duration="173.00" routeLength="2357.58" waitingTime="0.00" waitingCount="0" stopTime="0.00" timeLoss="16.77" rerouteNo="0" devices="tripinfo_52 fcd_52" vType="DEFAULT_VEHTYPE" speedFactor="1.02" vaporized=""/>
    <tripinfo id="60" depart="60.00" departLane="13682790_0" departPos="5.10" departSpeed="0.00" departDelay="0.00" arrival="228.00" arrivalLane="13680381#2_0" arrivalPos="11.87" arrivalSpeed="13.22" duration="168.00" routeLength="2791.91" waitingTime="1.00" waitingCount="1" stopTime="0.00" timeLoss="28.12" rerouteNo="0" devices="tripinfo_60 fcd_60" vType="DEFAULT_VEHTYPE" speedFactor="1.08" vaporized=""/>
    <tripinfo id="141" depart="141.00" departLane="13681297_0" departPos="5.10" departSpeed="0.00" departDelay="0.00" arrival="228.00" arrivalLane="-13682509_0" arrivalPos="136.95" arrivalSpeed="14.48" duration="87.00" routeLength="1089.34" waitingTime="0.00" waitingCount="0" stopTime="0.00" timeLoss="13.56" rerouteNo="0" devices="tripinfo_141 fcd_141" vType="DEFAULT_VEHTYPE" speedFactor="1.11" vaporized=""/>
    <tripinfo id="139" depart="139.00" departLane="-13682478#3_0" departPos="5.10" departSpeed="0.00" departDelay="0.00" arrival="230.00" arrivalLane="13681098#2_0" arrivalPos="2.57" arrivalSpeed="13.42" duration="91.00" routeLength="1067.67" waitingTime="0.00" waitingCount="0" stopTime="0.00" timeLoss="11.94" rerouteNo="0" devices="tripinfo_139 fcd_139" vType="DEFAULT_VEHTYPE" speedFactor="1.00" vaporized=""/>
    <tripinfo id="85" depart="85.00" departLane="886084899#1_0" departPos="5.10" departSpeed="0.00" departDelay="0.00" arrival="233.00" arrivalLane="13680663#9_0" arrivalPos="26.94" arrivalSpeed="21.21" duration="148.00" routeLength="1677.71" waitingTime="37.00" waitingCount="2" stopTime="0.00" timeLoss="66.45" rerouteNo="0" devices="tripinfo_85 fcd_85" vType="DEFAULT_VEHTYPE" speedFactor="0.98" vaporized=""/>
    <tripinfo id="9" depart="9.00" departLane="192952205#5_0" departPos="5.10" departSpeed="0.00" departDelay="0.00" arrival="234.00" arrivalLane="-119655169#4_0" arrivalPos="324.71" arrivalSpeed="11.25" duration="225.00" routeLength="2694.97" waitingTime="20.00" waitingCount="3" stopTime="0.00" timeLoss="60.53" rerouteNo="0" devices="tripinfo_9 fcd_9" vType="DEFAULT_VEHTYPE" speedFactor="0.86" vaporized=""/>
    <tripinfo id="64" depart="64.00" departLane="292134212_0" departPos="5.10" departSpeed="0.00" departDelay="0.00" arrival="236.00" arrivalLane="207883180_0" arrivalPos="86.51" arrivalSpeed="20.44" duration="172.00" routeLength="2952.77" waitingTime="0.00" waitingCount="0" stopTime="0.00" timeLoss="28.22" rerouteNo="0" devices="tripinfo_64 fcd_64" vType="DEFAULT_VEHTYPE" speedFactor="0.94" vaporized=""/>
    <tripinfo id="14" depart="14.00" departLane="292071086#4_0" departPos="5.10" departSpeed="0.00" departDelay="0.00" arrival="238.00" arrivalLane="13681097#5_0" arrivalPos="145.98" arrivalSpeed="12.84" duration="224.00" routeLength="2886.54" waitingTime="0.00" waitingCount="0" stopTime="0.00" timeLoss="22.84" rerouteNo="0" devices="tripinfo_14 fcd_14" vType="DEFAULT_VEHTYPE" speedFactor="0.99" vaporized=""/>
    <tripinfo id="16" depart="16.00" departLane="13679417#2_0" departPos="5.10" departSpeed="0.00" departDelay="0.00" arrival="248.00" arrivalLane="895702791#0_1" arrivalPos="43.89" arrivalSpeed="7.47" duration="232.00" routeLength="3166.42" waitingTime="38.00" waitingCount="1" stopTime="0.00" timeLoss="65.75" rerouteNo="0" devices="tripinfo_16 fcd_16" vType="DEFAULT_VEHTYPE" speedFactor="0.88" vaporized=""/>
    <tripinfo id="132" depart="132.00" departLane="207762604#0_0" departPos="0.83" departSpeed="0.00" departDelay="0.00" arrival="258.00" arrivalLane="13682173#2_0" arrivalPos="12.82" arrivalSpeed="13.85" duration="126.00" routeLength="1658.27" waitingTime="14.00" waitingCount="1" stopTime="0.00" timeLoss="42.58" rerouteNo="0" devices="tripinfo_132 fcd_132" vType="DEFAULT_VEHTYPE" speedFactor="1.07" vaporized=""/>
    <tripinfo id="106" depart="106.00" departLane="1159061926#11_0" departPos="5.10" departSpeed="0.00" departDelay="0.00" arrival="271.00" arrivalLane="-886582017#1_0" arrivalPos="153.01" arrivalSpeed="12.99" duration="165.00" routeLength="1928.68" waitingTime="24.00" waitingCount="2" stopTime="0.00" timeLoss="65.79" rerouteNo="0" devices="tripinfo_106 fcd_106" vType="DEFAULT_VEHTYPE" speedFactor="1.01" vaporized=""/>
    <tripinfo id="73" depart="73.00" departLane="13679538#4_0" departPos="5.10" departSpeed="0.00" departDelay="0.00" arrival="274.00" arrivalLane="13682429#19_0" arrivalPos="1.50" arrivalSpeed="6.46" duration="201.00" routeLength="1231.76" waitingTime="91.00" waitingCount="3" stopTime="0.00" timeLoss="133.12" rerouteNo="0" devices="tripinfo_73 fcd_73" vType="DEFAULT_VEHTYPE" speedFactor="1.06" vaporized=""/>
    <tripinfo id="128" depart="128.00" departLane="-13680342#1_0" departPos="0.20" departSpeed="0.00" departDelay="0.00" arrival="275.00" arrivalLane="-13682042#1_0" arrivalPos="27.22" arrivalSpeed="10.72" duration="147.00" routeLength="2113.10" waitingTime="2.00" waitingCount="1" stopTime="0.00" timeLoss="18.27" rerouteNo="0" devices="tripinfo_128 fcd_128" vType="DEFAULT_VEHTYPE" speedFactor="0.82" vaporized=""/>
    <tripinfo id="49" depart="49.00" departLane="895034486#5_0" departPos="0.20" departSpeed="0.00" departDelay="0.00" arrival="276.00" arrivalLane="292119473#11_0" arrivalPos="147.38" arrivalSpeed="11.11" duration="227.00" routeLength="2391.22" waitingTime="10.00" waitingCount="1" stopTime="0.00" timeLoss="47.43" rerouteNo="0" devices="tripinfo_49 fcd_49" vType="DEFAULT_VEHTYPE" speedFactor="0.85" vaporized=""/>
    <tripinfo id="83" depart="83.00" departLane="-13682197#2_0" departPos="5.10" departSpeed="0.00" departDelay="0.00" arrival="278.00" arrivalLane="13681639#7_0" arrivalPos="99.25" arrivalSpeed="8.95" duration="195.00" routeLength="2597.45" waitingTime="27.00" waitingCount="1" stopTime="0.00" timeLoss="55.77" rerouteNo="0" devices="tripinfo_83 fcd_83" vType="DEFAULT_VEHTYPE" speedFactor="0.97" vaporized=""/>
    <tripinfo id="114" depart="114.00" departLane="-13681282#6_0" departPos="5.10" departSpeed="0.00" departDelay="0.00" arrival="283.00" arrivalLane="895011683#5_0" arrivalPos="42.58" arrivalSpeed="27.81" duration="169.00" routeLength="2178.61" waitingTime="2.00" waitingCount="1" stopTime="0.00" timeLoss="26.85" rerouteNo="0" devices="tripinfo_114 fcd_114" vType="DEFAULT_VEHTYPE" speedFactor="1.01" vaporized=""/>
    <tripinfo id="232" depart="232.00" departLane="13679723#0_0" departPos="5.10" departSpeed="0.00" departDelay="0.00" arrival="283.00" arrivalLane="-13681151#19_0" arrivalPos="0.81" arrivalSpeed="11.92" duration="51.00" routeLength="563.55" waitingTime="0.00" waitingCount="0" stopTime="0.00" timeLoss="17.86" rerouteNo="0" devices="tripinfo_232 fcd_232" vType="DEFAULT_VEHTYPE" speedFactor="1.14" vaporized=""/>
    <tripinfo id="70" depart="70.00" departLane="1223122978_0" departPos="5.10" departSpeed="0.00" departDelay="0.00" arrival="289.00" arrivalLane="13680436#4_0" arrivalPos="46.98" arrivalSpeed="13.99" duration="219.00" routeLength="1713.52" waitingTime="85.00" waitingCount="3" stopTime="0.00" timeLoss="130.71" rerouteNo="0" devices="tripinfo_70 fcd_70" vType="DEFAULT_VEHTYPE" speedFactor="1.02" vaporized=""/>
    <tripinfo id="163" depart="165.00" departLane="-202055012#2_0" departPos="0.56" departSpeed="0.00" departDelay="2.00" arrival="289.00" arrivalLane="809428282#1_0" arrivalPos="56.78" arrivalSpeed="12.57" duration="124.00" routeLength="1398.23" waitingTime="0.00" waitingCount="0" stopTime="0.00" timeLoss="28.93" rerouteNo="0" devices="tripinfo_163 fcd_163" vType="DEFAULT_VEHTYPE" speedFactor="0.99" vaporized=""/>
    <tripinfo id="39" depart="39.00" departLane="-13682441#1_0" departPos="5.10" departSpeed="0.00" departDelay="0.00" arrival="290.00" arrivalLane="-13682429#17_0" arrivalPos="55.75" arrivalSpeed="23.82" duration="251.00" routeLength="2382.70" waitingTime="49.00" waitingCount="1" stopTime="0.00" timeLoss="76.66" rerouteNo="0" devices="tripinfo_39 fcd_39" vType="DEFAULT_VEHTYPE" speedFactor="0.90" vaporized=""/>
    <tripinfo id="110" depart="110.00" departLane="895020092_0" departPos="5.10" departSpeed="0.00" departDelay="0.00" arrival="290.00" arrivalLane="13680806#0_0" arrivalPos="123.93" arrivalSpeed="20.22" duration="180.00" routeLength="1875.16" waitingTime="43.00" waitingCount="2" stopTime="0.00" timeLoss="73.98" rerouteNo="0" devices="tripinfo_110 fcd_110" vType="DEFAULT_VEHTYPE" speedFactor="0.93" vaporized=""/>
    <tripinfo id="125" depart="125.00" departLane="-180175600#7_0" departPos="5.10" departSpeed="0.00" departDelay="0.00" arrival="293.00" arrivalLane="13682618#6_0" arrivalPos="45.17" arrivalSpeed="13.44" duration="168.00" routeLength="2128.01" waitingTime="26.00" waitingCount="1" stopTime="0.00" timeLoss="61.12" rerouteNo="0" devices="tripinfo_125 fcd_125" vType="DEFAULT_VEHTYPE" speedFactor="1.06" vaporized=""/>
    <tripinfo id="22" depart="22.00" departLane="-13680423#15_0" departPos="5.10" departSpeed="0.00" departDelay="0.00" arrival="295.00" arrivalLane="-13682257#1_0" arrivalPos="237.72" arrivalSpeed="12.99" duration="273.00" routeLength="3636.04" waitingTime="30.00" waitingCount="2" stopTime="0.00" timeLoss="64.25" rerouteNo="0" devices="tripinfo_22 fcd_22" vType="DEFAULT_VEHTYPE" speedFactor="0.97" vaporized=""/>
    <tripinfo id="153" depart="153.00" departLane="-13683150#3_0" departPos="4.97" departSpeed="0.00" departDelay="0.00" arrival="297.00" arrivalLane="483082949#5_0" arrivalPos="0.59" arrivalSpeed="14.30" duration="144.00" routeLength="1917.55" waitingTime="17.00" waitingCount="1" stopTime="0.00" timeLoss="48.91" rerouteNo="0" devices="tripinfo_153 fcd_153" vType="DEFAULT_VEHTYPE" speedFactor="1.07" vaporized=""/>
    <tripinfo id="34" depart="34.00" departLane="-180175600#11_0" departPos="5.10" departSpeed="0.00" departDelay="0.00" arrival="298.00" arrivalLane="-13682610_0" arrivalPos="129.44" arrivalSpeed="13.67" duration="264.00" routeLength="3538.76" waitingTime="9.00" waitingCount="1" stopTime="0.00" timeLoss="49.58" rerouteNo="0" devices="tripinfo_34 fcd_34" vType="DEFAULT_VEHTYPE" speedFactor="0.99" vaporized=""/>
    <tripinfo id="19" depart="19.00" departLane="292119445#1_0" departPos="5.10" departSpeed="0.00" departDelay="0.00" arrival="300.00" arrivalLane="13680783#0_0" arrivalPos="145.91" arrivalSpeed="15.66" duration="281.00" routeLength="4389.14" waitingTime="24.00" waitingCount="1" stopTime="0.00" timeLoss="72.72" rerouteNo="0" devices="tripinfo_19 fcd_19" vType="DEFAULT_VEHTYPE" speedFactor="1.16" vaporized=""/>
    <tripinfo id="24" depart="24.00" departLane="13681299#4_0" departPos="4.58" departSpeed="0.00" departDelay="0.00" arrival="300.00" arrivalLane="-292121797#0_0" arrivalPos="158.23" arrivalSpeed="11.20" duration="276.00" routeLength="3065.83" waitingTime="46.00" waitingCount="2" stopTime="0.00" timeLoss="86.55" rerouteNo="0" devices="tripinfo_24 fcd_24" vType="DEFAULT_VEHTYPE" speedFactor="0.83" vaporized=""/>
    <tripinfo id="105" depart="105.00" departLane="-13682441#2_0" departPos="5.10" departSpeed="0.00" departDelay="0.00" arrival="300.00" arrivalLane="13683172_0" arrivalPos="215.53" arrivalSpeed="14.04" duration="195.00" routeLength="1882.59" waitingTime="39.00" waitingCount="2" stopTime="0.00" timeLoss="68.44" rerouteNo="0" devices="tripinfo_105 fcd_105" vType="DEFAULT_VEHTYPE" speedFactor="1.07" vaporized=""/>
    <tripinfo id="62" depart="62.00" departLane="-1081626714_0" departPos="5.10" departSpeed="0.00" departDelay="0.00" arrival="303.00" arrivalLane="-202055016#2_0" arrivalPos="42.39" arrivalSpeed="8.38" duration="241.00" routeLength="4137.00" waitingTime="0.00" waitingCount="0" stopTime="0.00" timeLoss="34.54" rerouteNo="0" devices="tripinfo_62 fcd_62" vType="DEFAULT_VEHTYPE" speedFactor="1.02" vaporized=""/>
    <tripinfo id="57" depart="57.00" departLane="589357400#3_0" departPos="5.10" departSpeed="0.00" departDelay="0.00" arrival="307.00" arrivalLane="292121802#9_0" arrivalPos="361.33" arrivalSpeed="24.95" duration="250.00" routeLength="5355.14" waitingTime="0.00" waitingCount="0" stopTime="0.00" timeLoss="30.61" rerouteNo="0" devices="tripinfo_57 fcd_57" vType="DEFAULT_VEHTYPE" speedFactor="1.14" vaporized=""/>
    <tripinfo id="140" depart="140.00" departLane="13682237#37_0" departPos="5.10" departSpeed="0.00" departDelay="0.00" arrival="308.00" arrivalLane="-13681896#4_0" arrivalPos="84.38" arrivalSpeed="12.35" duration="168.00" routeLength="1417.46" waitingTime="50.00" waitingCount="3" stopTime="0.00" timeLoss="92.05" rerouteNo="0" devices="tripinfo_140 fcd_140" vType="DEFAULT_VEHTYPE" speedFactor="0.95" vaporized=""/>
    <tripinfo id="178" depart="178.00" departLane="895011684#20_0" departPos="0.20" departSpeed="0.00" departDelay="0.00" arrival="308.00" arrivalLane="-13682522_0" arrivalPos="311.51" arrivalSpeed="14.29" duration="130.00" routeLength="1698.83" waitingTime="0.00" waitingCount="0" stopTime="0.00" timeLoss="25.76" rerouteNo="0" devices="tripinfo_178 fcd_178" vType="DEFAULT_VEHTYPE" speedFactor="1.03" vaporized=""/>
    <tripinfo id="130" depart="130.00" departLane="292188925_0" departPos="5.10" departSpeed="0.00" departDelay="0.00" arrival="311.00" arrivalLane="292188917#2_0" arrivalPos="231.35" arrivalSpeed="19.36" duration="181.00" routeLength="2422.41" waitingTime="0.00" waitingCount="0" stopTime="0.00" timeLoss="18.30" rerouteNo="0" devices="tripinfo_130 fcd_130" vType="DEFAULT_VEHTYPE" speedFactor="1.01" vaporized=""/>
    <tripinfo id="28" depart="28.00" departLane="-13681402#7_0" departPos="5.10" departSpeed="0.00" departDelay="0.00" arrival="312.00" arrivalLane="13682429#13_0" arrivalPos="38.43" arrivalSpeed="21.87" duration="284.00" routeLength="3146.11" waitingTime="47.00" waitingCount="1" stopTime="0.00" timeLoss="104.69" rerouteNo="0" devices="tripinfo_28 fcd_28" vType="DEFAULT_VEHTYPE" speedFactor="1.13" vaporized=""/>
    <tripinfo id="35" depart="35.00" departLane="-13681863#3_0" departPos="2.61" departSpeed="0.00" departDelay="0.00" arrival="312.00" arrivalLane="886578338#1_0" arrivalPos="38.04" arrivalSpeed="14.03" duration="277.00" routeLength="3653.80" waitingTime="20.00" waitingCount="2" stopTime="0.00" timeLoss="71.75" rerouteNo="0" devices="tripinfo_35 fcd_35" vType="DEFAULT_VEHTYPE" speedFactor="1.02" vaporized=""/>
    <tripinfo id="136" depart="136.00" departLane="13681524#60_0" departPos="0.20" departSpeed="0.00" departDelay="0.00" arrival="319.00" arrivalLane="886092096_0" arrivalPos="40.87" arrivalSpeed="11.72" duration="183.00" routeLength="3732.13" waitingTime="0.00" waitingCount="0" stopTime="0.00" timeLoss="16.97" rerouteNo="0" devices="tripinfo_136 fcd_136" vType="DEFAULT_VEHTYPE" speedFactor="1.01" vaporized=""/>
    <tripinfo id="4" depart="4.00" departLane="-589357403#4_0" departPos="5.10" departSpeed="0.00" departDelay="0.00" arrival="321.00" arrivalLane="-1298127590#0_0" arrivalPos="55.86" arrivalSpeed="13.34" duration="317.00" routeLength="4670.00" waitingTime="40.00" waitingCount="3" stopTime="0.00" timeLoss="92.91" rerouteNo="0" devices="tripinfo_4 fcd_4" vType="DEFAULT_VEHTYPE" speedFactor="1.03" vaporized=""/>
    <tripinfo id="193" depart="193.00" departLane="-13680947#2_0" departPos="5.10" departSpeed="0.00" departDelay="0.00" arrival="321.00" arrivalLane="-886580078#0_0" arrivalPos="39.91" arrivalSpeed="14.80" duration="128.00" routeLength="1604.18" waitingTime="0.00" waitingCount="0" stopTime="0.00" timeLoss="18.18" rerouteNo="0" devices="tripinfo_193 fcd_193" vType="DEFAULT_VEHTYPE" speedFactor="1.10" vaporized=""/>
    <tripinfo id="77" depart="77.00" departLane="-13680849#24_0" departPos="5.10" departSpeed="0.00" departDelay="0.00" arrival="327.00" arrivalLane="-13682183#2_0" arrivalPos="62.42" arrivalSpeed="12.67" duration="250.00" routeLength="3300.43" waitingTime="28.00" waitingCount="4" stopTime="0.00" timeLoss="78.04" rerouteNo="0" devices="tripinfo_77 fcd_77" vType="DEFAULT_VEHTYPE" speedFactor="0.98" vaporized=""/>
    <tripinfo id="50" depart="50.00" departLane="-1223122926#3_0" departPos="5.10" departSpeed="0.00" departDelay="0.00" arrival="328.00" arrivalLane="13682340#3_0" arrivalPos="27.65" arrivalSpeed="11.61" duration="278.00" routeLength="2735.21" waitingTime="47.00" waitingCount="4" stopTime="0.00" timeLoss="96.88" rerouteNo="0" devices="tripinfo_50 fcd_50" vType="DEFAULT_VEHTYPE" speedFactor="0.85" vaporized=""/>
    <tripinfo id="23" depart="23.00" departLane="-13680636#1_0" departPos="5.10" departSpeed="0.00" departDelay="0.00" arrival="330.00" arrivalLane="-13682885#1_0" arrivalPos="68.53" arrivalSpeed="17.44" duration="307.00" routeLength="3991.76" waitingTime="51.00" waitingCount="1" stopTime="0.00" timeLoss="91.05" rerouteNo="0" devices="tripinfo_23 fcd_23" vType="DEFAULT_VEHTYPE" speedFactor="0.89" vaporized=""/>
    <tripinfo id="113" depart="113.00" departLane="129441444#31_0" departPos="5.10" departSpeed="0.00" departDelay="0.00" arrival="334.00" arrivalLane="292114858#0_0" arrivalPos="44.06" arrivalSpeed="14.64" duration="221.00" routeLength="2829.75" waitingTime="34.00" waitingCount="1" stopTime="0.00" timeLoss="60.82" rerouteNo="0" devices="tripinfo_113 fcd_113" vType="DEFAULT_VEHTYPE" speedFactor="1.10" vaporized=""/>
    <tripinfo id="66" depart="66.00" departLane="292134209#0_0" departPos="5.10" departSpeed="0.00" departDelay="0.00" arrival="335.00" arrivalLane="886580089#1_0" arrivalPos="25.20" arrivalSpeed="12.49" duration="269.00" routeLength="3370.34" waitingTime="47.00" waitingCount="3" stopTime="0.00" timeLoss="82.84" rerouteNo="0" devices="tripinfo_66 fcd_66" vType="DEFAULT_VEHTYPE" speedFactor="0.91" vaporized=""/>
    <tripinfo id="59" depart="59.00" departLane="13681032#1_0" departPos="5.10" departSpeed="0.00" departDelay="0.00" arrival="336.00" arrivalLane="-13681302#1_0" arrivalPos="231.30" arrivalSpeed="12.86" duration="277.00" routeLength="1364.87" waitingTime="147.00" waitingCount="3" stopTime="0.00" timeLoss="173.10" rerouteNo="0" devices="tripinfo_59 fcd_59" vType="DEFAULT_VEHTYPE" speedFactor="0.97" vaporized=""/>
    <tripinfo id="126" depart="126.00" departLane="-13680339#2_0" departPos="2.27" departSpeed="0.00" departDelay="0.00" arrival="338.00" arrivalLane="1223122983#1_0" arrivalPos="13.03" arrivalSpeed="24.93" duration="212.00" routeLength="1831.38" waitingTime="84.00" waitingCount="2" stopTime="0.00" timeLoss="120.61" rerouteNo="0" devices="tripinfo_126 fcd_126" vType="DEFAULT_VEHTYPE" speedFactor="1.15" vaporized=""/>
    <tripinfo id="99" depart="99.00" departLane="991065298#2_0" departPos="5.10" departSpeed="0.00" departDelay="0.00" arrival="339.00" arrivalLane="223421969#9_0" arrivalPos="0.20" arrivalSpeed="14.89" duration="240.00" routeLength="3473.28" waitingTime="10.00" waitingCount="1" stopTime="0.00" timeLoss="53.54" rerouteNo="0" devices="tripinfo_99 fcd_99" vType="DEFAULT_VEHTYPE" speedFactor="1.10" vaporized=""/>
    <tripinfo id="186" depart="186.00" departLane="13682464#4_0" departPos="5.10" departSpeed="0.00" departDelay="0.00" arrival="340.00" arrivalLane="13681687#5_0" arrivalPos="42.47" arrivalSpeed="11.57" duration="154.00" routeLength="1281.70" waitingTime="19.00" waitingCount="1" stopTime="0.00" timeLoss="55.88" rerouteNo="0" devices="tripinfo_186 fcd_186" vType="DEFAULT_VEHTYPE" speedFactor="0.92" vaporized=""/>
    <tripinfo id="190" depart="190.00" departLane="13682259#2_0" departPos="5.10" departSpeed="0.00" departDelay="0.00" arrival="340.00" arrivalLane="-180175600#4_0" arrivalPos="26.20" arrivalSpeed="21.22" duration="150.00" routeLength="2380.52" waitingTime="0.00" waitingCount="0" stopTime="0.00" timeLoss="21.52" rerouteNo="0" devices="tripinfo_190 fcd_190" vType="DEFAULT_VEHTYPE" speedFactor="0.97" vaporized=""/>
    <tripinfo id="58" depart="58.00" departLane="-13682967#1_0" departPos="5.10" departSpeed="0.00" departDelay="0.00" arrival="342.00" arrivalLane="13681406#1_0" arrivalPos="551.33" arrivalSpeed="22.09" duration="284.00" routeLength="3420.47" waitingTime="30.00" waitingCount="1" stopTime="0.00" timeLoss="59.68" rerouteNo="0" devices="tripinfo_58 fcd_58" vType="DEFAULT_VEHTYPE" speedFactor="1.02" vaporized=""/>
    <tripinfo id="18" depart="18.00" departLane="203381204#1_0" departPos="5.10" departSpeed="0.00" departDelay="0.00" arrival="343.00" arrivalLane="13681232#7_0" arrivalPos="70.92" arrivalSpeed="12.08" duration="325.00" routeLength="3262.36" waitingTime="118.00" waitingCount="3" stopTime="0.00" timeLoss="160.71" rerouteNo="0" devices="tripinfo_18 fcd_18" vType="DEFAULT_VEHTYPE" speedFactor="0.94" vaporized=""/>
    <tripinfo id="56" depart="56.00" departLane="129441444#2_0" departPos="5.10" departSpeed="0.00" departDelay="0.00" arrival="345.00" arrivalLane="-13681576#1_0" arrivalPos="48.17" arrivalSpeed="23.80" duration="289.00" routeLength="4445.47" waitingTime="42.00" waitingCount="2" stopTime="0.00" timeLoss="75.81" rerouteNo="0" devices="tripinfo_56 fcd_56" vType="DEFAULT_VEHTYPE" speedFactor="0.90" vaporized=""/>
    <tripinfo id="40" depart="40.00" departLane="13680435#10_0" departPos="1.50" departSpeed="0.00" departDelay="0.00" arrival="347.00" arrivalLane="-13682494#4_0" arrivalPos="99.63" arrivalSpeed="13.94" duration="307.00" routeLength="2635.73" waitingTime="93.00" waitingCount="3" stopTime="0.00" timeLoss="134.12" rerouteNo="0" devices="tripinfo_40 fcd_40" vType="DEFAULT_VEHTYPE" speedFactor="1.03" vaporized=""/>
    <tripinfo id="46" depart="46.00" departLane="180175601#1_0" departPos="0.20" departSpeed="0.00" departDelay="0.00" arrival="348.00" arrivalLane="-886580089#3_0" arrivalPos="7.93" arrivalSpeed="7.08" duration="302.00" routeLength="4344.24" waitingTime="11.00" waitingCount="2" stopTime="0.00" timeLoss="69.00" rerouteNo="0" devices="tripinfo_46 fcd_46" vType="DEFAULT_VEHTYPE" speedFactor="1.00" vaporized=""/>
    <tripinfo id="124" depart="124.00" departLane="13681607#1_0" departPos="2.59" departSpeed="0.00" departDelay="0.00" arrival="350.00" arrivalLane="-180175600#11_0" arrivalPos="90.27" arrivalSpeed="19.58" duration="226.00" routeLength="1989.62" waitingTime="85.00" waitingCount="3" stopTime="0.00" timeLoss="122.48" rerouteNo="0" devices="tripinfo_124 fcd_124" vType="DEFAULT_VEHTYPE" speedFactor="1.02" vaporized=""/>
    <tripinfo id="48" depart="48.00" departLane="990656282#2_0" departPos="4.01" departSpeed="0.00" departDelay="0.00" arrival="353.00" arrivalLane="13680165#4_0" arrivalPos="38.74" arrivalSpeed="11.73" duration="305.00" routeLength="3362.40" waitingTime="55.00" waitingCount="2" stopTime="0.00" timeLoss="91.00" rerouteNo="0" devices="tripinfo_48 fcd_48" vType="DEFAULT_VEHTYPE" speedFactor="0.88" vaporized=""/>
    <tripinfo id="283" depart="283.00" departLane="-13680663#20_0" departPos="5.10" departSpeed="0.00" departDelay="0.00" arrival="355.00" arrivalLane="895011683#5_1" arrivalPos="42.58" arrivalSpeed="26.23" duration="72.00" routeLength="926.29" waitingTime="0.00" waitingCount="0" stopTime="0.00" timeLoss="11.76" rerouteNo="0" devices="tripinfo_283 fcd_283" vType="DEFAULT_VEHTYPE" speedFactor="0.95" vaporized=""/>
    <tripinfo id="211" depart="211.00" departLane="-13681576#8_0" departPos="5.10" departSpeed="0.00" departDelay="0.00" arrival="358.00" arrivalLane="13682083#0_0" arrivalPos="165.72" arrivalSpeed="14.71" duration="147.00" routeLength="2873.42" waitingTime="0.00" waitingCount="0" stopTime="0.00" timeLoss="33.69" rerouteNo="0" devices="tripinfo_211 fcd_211" vType="DEFAULT_VEHTYPE" speedFactor="1.10" vaporized=""/>
    <tripinfo id="21" depart="21.00" departLane="-13682061#1_0" departPos="5.10" departSpeed="0.00" departDelay="0.00" arrival="359.00" arrivalLane="-13683014#6_0" arrivalPos="2.09" arrivalSpeed="13.91" duration="338.00" routeLength="3915.41" waitingTime="42.00" waitingCount="5" stopTime="0.00" timeLoss="98.37" rerouteNo="0" devices="tripinfo_21 fcd_21" vType="DEFAULT_VEHTYPE" speedFactor="1.01" vaporized=""/>
    <tripinfo id="151" depart="151.00" departLane="207883187#2_0" departPos="5.10" departSpeed="0.00" departDelay="0.00" arrival="364.00" arrivalLane="13680849#1_0" arrivalPos="280.29" arrivalSpeed="20.99" duration="213.00" routeLength="3635.50" waitingTime="0.00" waitingCount="0" stopTime="0.00" timeLoss="24.85" rerouteNo="0" devices="tripinfo_151 fcd_151" vType="DEFAULT_VEHTYPE" speedFactor="0.96" vaporized=""/>
    <tripinfo id="149" depart="149.00" departLane="-13680347#6_0" departPos="5.10" departSpeed="0.00" departDelay="0.00" arrival="365.00" arrivalLane="315559573#3_0" arrivalPos="38.93" arrivalSpeed="4.31" duration="216.00" routeLength="2454.21" waitingTime="42.00" waitingCount="1" stopTime="0.00" timeLoss="71.90" rerouteNo="0" devices="tripinfo_149 fcd_149" vType="DEFAULT_VEHTYPE" speedFactor="0.97" vaporized=""/>
    <tripinfo id="109" depart="109.00" departLane="-13681250#1_0" departPos="5.10" departSpeed="0.00" departDelay="0.00" arrival="368.00" arrivalLane="-13683176#12_0" arrivalPos="9.65" arrivalSpeed="6.12" duration="259.00" routeLength="3318.68" waitingTime="0.00" waitingCount="0" stopTime="0.00" timeLoss="24.09" rerouteNo="0" devices="tripinfo_109 fcd_109" vType="DEFAULT_VEHTYPE" speedFactor="0.96" vaporized=""/>
    <tripinfo id="240" depart="240.00" departLane="-292121795#5_0" departPos="5.10" departSpeed="0.00" departDelay="0.00" arrival="373.00" arrivalLane="-119655169#0_0" arrivalPos="16.80" arrivalSpeed="15.53" duration="133.00" routeLength="2410.87" waitingTime="0.00" waitingCount="0" stopTime="0.00" timeLoss="19.22" rerouteNo="0" devices="tripinfo_240 fcd_240" vType="DEFAULT_VEHTYPE" speedFactor="1.13" vaporized=""/>