<?xml version="1.0" encoding="UTF-8"?>

<!-- generated on 2025-04-14 19:14:53 by Eclipse SUMO sumo Version 1.22.0
<sumoConfiguration xmlns:xsi="http://www.w3.org/2001/XMLSchema-instance" xsi:noNamespaceSchemaLocation="http://sumo.dlr.de/xsd/sumoConfiguration.xsd">

    <input>
        <net-file value="data/map.net.xml"/>
        <route-files value="data/routes.rou.xml"/>
    </input>

    <output>
        <fcd-output value="data/output/fcd.xml"/>
        <summary-output value="data/output/summary.xml"/>
        <tripinfo-output value="data/output/tripinfo.xml"/>
    </output>

    <time>
        <begin value="0"/>
        <end value="7200"/>
        <step-length value="1"/>
    </time>

</sumoConfiguration>
-->

<tripinfos xmlns:xsi="http://www.w3.org/2001/XMLSchema-instance" xsi:noNamespaceSchemaLocation="http://sumo.dlr.de/xsd/tripinfo_file.xsd">
</tripinfos>
