<?xml version="1.0" encoding="UTF-8"?>

<!-- generated on 2025-04-21 19:34:16 by Eclipse SUMO GUI Version 1.22.0
<sumoConfiguration xmlns:xsi="http://www.w3.org/2001/XMLSchema-instance" xsi:noNamespaceSchemaLocation="http://sumo.dlr.de/xsd/sumoConfiguration.xsd">

    <input>
        <net-file value="C:\Users\chand\OneDrive\Desktop\TrafficSignalManagement\data\map.net.xml"/>
        <route-files value="C:\Users\chand\OneDrive\Desktop\TrafficSignalManagement\data\routes.rou.xml"/>
    </input>

    <output>
        <fcd-output value="C:\Users\chand\OneDrive\Desktop\TrafficSignalManagement\data\output/fcd.xml"/>
        <summary-output value="C:\Users\chand\OneDrive\Desktop\TrafficSignalManagement\data\output/summary.xml"/>
        <tripinfo-output value="C:\Users\chand\OneDrive\Desktop\TrafficSignalManagement\data\output/tripinfo.xml"/>
    </output>

    <time>
        <begin value="0"/>
        <end value="100"/>
        <step-length value="1"/>
    </time>

</sumoConfiguration>
-->

<tripinfos xmlns:xsi="http://www.w3.org/2001/XMLSchema-instance" xsi:noNamespaceSchemaLocation="http://sumo.dlr.de/xsd/tripinfo_file.xsd">
</tripinfos>
